ITEM: TIMESTEP
0
ITEM: NUMBER OF ATOMS
2
ITEM: BOX BOUNDS pp pp pp
0.0000000000000000e+00 7.1200000000000001e+00
0.0000000000000000e+00 7.1200000000000001e+00
0.0000000000000000e+00 7.1200000000000001e+00
ITEM: ATOMS id type xs ys zs
1 1 0.75 0.75 0.25
2 2 0.625 0.625 0.125
ITEM: TIMESTEP
5
ITEM: NUMBER OF ATOMS
2
ITEM: BOX BOUNDS pp pp pp
0.0000000000000000e+00 7.1200000000000001e+00
0.0000000000000000e+00 7.1200000000000001e+00
0.0000000000000000e+00 7.1200000000000001e+00
ITEM: ATOMS id type xs ys zs
1 1 0.74799 0.748235 0.248047
2 2 0.628528 0.628098 0.128429
ITEM: TIMESTEP
10
ITEM: NUMBER OF ATOMS
2
ITEM: BOX BOUNDS pp pp pp
0.0000000000000000e+00 7.1200000000000001e+00
0.0000000000000000e+00 7.1200000000000001e+00
0.0000000000000000e+00 7.1200000000000001e+00
ITEM: ATOMS id type xs ys zs
1 1 0.748063 0.748573 0.248181
2 2 0.6284 0.627505 0.128194
ITEM: TIMESTEP
15
ITEM: NUMBER OF ATOMS
2
ITEM: BOX BOUNDS pp pp pp
0.0000000000000000e+00 7.1200000000000001e+00
0.0000000000000000e+00 7.1200000000000001e+00
0.0000000000000000e+00 7.1200000000000001e+00
ITEM: ATOMS id type xs ys zs
1 1 0.749672 0.750456 0.249852
2 2 0.625576 0.6242 0.125259
ITEM: TIMESTEP
20
ITEM: NUMBER OF ATOMS
2
ITEM: BOX BOUNDS pp pp pp
0.0000000000000000e+00 7.1200000000000001e+00
0.0000000000000000e+00 7.1200000000000001e+00
0.0000000000000000e+00 7.1200000000000001e+00
ITEM: ATOMS id type xs ys zs
1 1 0.747608 0.748602 0.247836
2 2 0.6292 0.627454 0.128798
ITEM: TIMESTEP
25
ITEM: NUMBER OF ATOMS
2
ITEM: BOX BOUNDS pp pp pp
0.0000000000000000e+00 7.1200000000000001e+00
0.0000000000000000e+00 7.1200000000000001e+00
0.0000000000000000e+00 7.1200000000000001e+00
ITEM: ATOMS id type xs ys zs
1 1 0.747831 0.749097 0.248122
2 2 0.628808 0.626585 0.128296
ITEM: TIMESTEP
30
ITEM: NUMBER OF ATOMS
2
ITEM: BOX BOUNDS pp pp pp
0.0000000000000000e+00 7.1200000000000001e+00
0.0000000000000000e+00 7.1200000000000001e+00
0.0000000000000000e+00 7.1200000000000001e+00
ITEM: ATOMS id type xs ys zs
1 1 0.749337 0.750905 0.249698
2 2 0.626163 0.623412 0.12553
ITEM: TIMESTEP
35
ITEM: NUMBER OF ATOMS
2
ITEM: BOX BOUNDS pp pp pp
0.0000000000000000e+00 7.1200000000000001e+00
0.0000000000000000e+00 7.1200000000000001e+00
0.0000000000000000e+00 7.1200000000000001e+00
ITEM: ATOMS id type xs ys zs
1 1 0.747226 0.748968 0.247627
2 2 0.62987 0.626811 0.129166
ITEM: TIMESTEP
40
ITEM: NUMBER OF ATOMS
2
ITEM: BOX BOUNDS pp pp pp
0.0000000000000000e+00 7.1200000000000001e+00
0.0000000000000000e+00 7.1200000000000001e+00
0.0000000000000000e+00 7.1200000000000001e+00
ITEM: ATOMS id type xs ys zs
1 1 0.747595 0.749622 0.248062
2 2 0.629221 0.625664 0.128402
ITEM: TIMESTEP
45
ITEM: NUMBER OF ATOMS
2
ITEM: BOX BOUNDS pp pp pp
0.0000000000000000e+00 7.1200000000000001e+00
0.0000000000000000e+00 7.1200000000000001e+00
0.0000000000000000e+00 7.1200000000000001e+00
ITEM: ATOMS id type xs ys zs
1 1 0.748996 0.751347 0.249537
2 2 0.626763 0.622636 0.125813
ITEM: TIMESTEP
50
ITEM: NUMBER OF ATOMS
2
ITEM: BOX BOUNDS pp pp pp
0.0000000000000000e+00 7.1200000000000001e+00
0.0000000000000000e+00 7.1200000000000001e+00
0.0000000000000000e+00 7.1200000000000001e+00
ITEM: ATOMS id type xs ys zs
1 1 0.746846 0.749334 0.247419
2 2 0.630537 0.626168 0.129531
ITEM: TIMESTEP
55
ITEM: NUMBER OF ATOMS
2
ITEM: BOX BOUNDS pp pp pp
0.0000000000000000e+00 7.1200000000000001e+00
0.0000000000000000e+00 7.1200000000000001e+00
0.0000000000000000e+00 7.1200000000000001e+00
ITEM: ATOMS id type xs ys zs
1 1 0.747357 0.750148 0.247999
2 2 0.629639 0.624741 0.128512
ITEM: TIMESTEP
60
ITEM: NUMBER OF ATOMS
2
ITEM: BOX BOUNDS pp pp pp
0.0000000000000000e+00 7.1200000000000001e+00
0.0000000000000000e+00 7.1200000000000001e+00
0.0000000000000000e+00 7.1200000000000001e+00
ITEM: ATOMS id type xs ys zs
1 1 0.748648 0.751782 0.249369
2 2 0.627374 0.621872 0.126108
ITEM: TIMESTEP
65
ITEM: NUMBER OF ATOMS
2
ITEM: BOX BOUNDS pp pp pp
0.0000000000000000e+00 7.1200000000000001e+00
0.0000000000000000e+00 7.1200000000000001e+00
0.0000000000000000e+00 7.1200000000000001e+00
ITEM: ATOMS id type xs ys zs
1 1 0.746467 0.749701 0.247212
2 2 0.631201 0.625525 0.129895
ITEM: TIMESTEP
70
ITEM: NUMBER OF ATOMS
2
ITEM: BOX BOUNDS pp pp pp
0.0000000000000000e+00 7.1200000000000001e+00
0.0000000000000000e+00 7.1200000000000001e+00
0.0000000000000000e+00 7.1200000000000001e+00
ITEM: ATOMS id type xs ys zs
1 1 0.747115 0.750673 0.247934
2 2 0.630064 0.623818 0.128626
ITEM: TIMESTEP
75
ITEM: NUMBER OF ATOMS
2
ITEM: BOX BOUNDS pp pp pp
0.0000000000000000e+00 7.1200000000000001e+00
0.0000000000000000e+00 7.1200000000000001e+00
0.0000000000000000e+00 7.1200000000000001e+00
ITEM: ATOMS id type xs ys zs
1 1 0.748293 0.752211 0.249194
2 2 0.627997 0.621119 0.126414
ITEM: TIMESTEP
80
ITEM: NUMBER OF ATOMS
2
ITEM: BOX BOUNDS pp pp pp
0.0000000000000000e+00 7.1200000000000001e+00
0.0000000000000000e+00 7.1200000000000001e+00
0.0000000000000000e+00 7.1200000000000001e+00
ITEM: ATOMS id type xs ys zs
1 1 0.746091 0.750069 0.247006
2 2 0.631862 0.62488 0.130255
ITEM: TIMESTEP
85
ITEM: NUMBER OF ATOMS
2
ITEM: BOX BOUNDS pp pp pp
0.0000000000000000e+00 7.1200000000000001e+00
0.0000000000000000e+00 7.1200000000000001e+00
0.0000000000000000e+00 7.1200000000000001e+00
ITEM: ATOMS id type xs ys zs
1 1 0.74687 0.751199 0.247866
2 2 0.630495 0.622895 0.128746
ITEM: TIMESTEP
90
ITEM: NUMBER OF ATOMS
2
ITEM: BOX BOUNDS pp pp pp
0.0000000000000000e+00 7.1200000000000001e+00
0.0000000000000000e+00 7.1200000000000001e+00
0.0000000000000000e+00 7.1200000000000001e+00
ITEM: ATOMS id type xs ys zs
1 1 0.747931 0.752633 0.249013
2 2 0.628632 0.620378 0.126733
ITEM: TIMESTEP
95
ITEM: NUMBER OF ATOMS
2
ITEM: BOX BOUNDS pp pp pp
0.0000000000000000e+00 7.1200000000000001e+00
0.0000000000000000e+00 7.1200000000000001e+00
0.0000000000000000e+00 7.1200000000000001e+00
ITEM: ATOMS id type xs ys zs
1 1 0.745716 0.750438 0.246803
2 2 0.63252 0.624231 0.130612
ITEM: TIMESTEP
100
ITEM: NUMBER OF ATOMS
2
ITEM: BOX BOUNDS pp pp pp
0.0000000000000000e+00 7.1200000000000001e+00
0.0000000000000000e+00 7.1200000000000001e+00
0.0000000000000000e+00 7.1200000000000001e+00
ITEM: ATOMS id type xs ys zs
1 1 0.746619 0.751725 0.247795
2 2 0.630934 0.621972 0.128871
ITEM: TIMESTEP
105
ITEM: NUMBER OF ATOMS
2
ITEM: BOX BOUNDS pp pp pp
0.0000000000000000e+00 7.1200000000000001e+00
0.0000000000000000e+00 7.1200000000000001e+00
0.0000000000000000e+00 7.1200000000000001e+00
ITEM: ATOMS id type xs ys zs
1 1 0.747562 0.753049 0.248825
2 2 0.629279 0.619649 0.127062
ITEM: TIMESTEP
110
ITEM: NUMBER OF ATOMS
2
ITEM: BOX BOUNDS pp pp pp
0.0000000000000000e+00 7.1200000000000001e+00
0.0000000000000000e+00 7.1200000000000001e+00
0.0000000000000000e+00 7.1200000000000001e+00
ITEM: ATOMS id type xs ys zs
1 1 0.745344 0.750809 0.246602
2 2 0.633174 0.623579 0.130966
ITEM: TIMESTEP
115
ITEM: NUMBER OF ATOMS
2
ITEM: BOX BOUNDS pp pp pp
0.0000000000000000e+00 7.1200000000000001e+00
0.0000000000000000e+00 7.1200000000000001e+00
0.0000000000000000e+00 7.1200000000000001e+00
ITEM: ATOMS id type xs ys zs
1 1 0.746364 0.752251 0.247719
2 2 0.631382 0.621049 0.129004
ITEM: TIMESTEP
120
ITEM: NUMBER OF ATOMS
2
ITEM: BOX BOUNDS pp pp pp
0.0000000000000000e+00 7.1200000000000001e+00
0.0000000000000000e+00 7.1200000000000001e+00
0.0000000000000000e+00 7.1200000000000001e+00
ITEM: ATOMS id type xs ys zs
1 1 0.747187 0.753458 0.248631
2 2 0.629937 0.61893 0.127404
ITEM: TIMESTEP
125
ITEM: NUMBER OF ATOMS
2
ITEM: BOX BOUNDS pp pp pp
0.0000000000000000e+00 7.1200000000000001e+00
0.0000000000000000e+00 7.1200000000000001e+00
0.0000000000000000e+00 7.1200000000000001e+00
ITEM: ATOMS id type xs ys zs
1 1 0.744973 0.751184 0.246402
2 2 0.633825 0.622922 0.131315
ITEM: TIMESTEP
130
ITEM: NUMBER OF ATOMS
2
ITEM: BOX BOUNDS pp pp pp
0.0000000000000000e+00 7.1200000000000001e+00
0.0000000000000000e+00 7.1200000000000001e+00
0.0000000000000000e+00 7.1200000000000001e+00
ITEM: ATOMS id type xs ys zs
1 1 0.746104 0.752776 0.247639
2 2 0.631839 0.620127 0.129144
ITEM: TIMESTEP
135
ITEM: NUMBER OF ATOMS
2
ITEM: BOX BOUNDS pp pp pp
0.0000000000000000e+00 7.1200000000000001e+00
0.0000000000000000e+00 7.1200000000000001e+00
0.0000000000000000e+00 7.1200000000000001e+00
ITEM: ATOMS id type xs ys zs
1 1 0.746806 0.753861 0.24843
2 2 0.630607 0.618222 0.127757
ITEM: TIMESTEP
140
ITEM: NUMBER OF ATOMS
2
ITEM: BOX BOUNDS pp pp pp
0.0000000000000000e+00 7.1200000000000001e+00
0.0000000000000000e+00 7.1200000000000001e+00
0.0000000000000000e+00 7.1200000000000001e+00
ITEM: ATOMS id type xs ys zs
1 1 0.744604 0.751562 0.246206
2 2 0.634472 0.622258 0.131661
ITEM: TIMESTEP
145
ITEM: NUMBER OF ATOMS
2
ITEM: BOX BOUNDS pp pp pp
0.0000000000000000e+00 7.1200000000000001e+00
0.0000000000000000e+00 7.1200000000000001e+00
0.0000000000000000e+00 7.1200000000000001e+00
ITEM: ATOMS id type xs ys zs
1 1 0.745838 0.7533 0.247555
2 2 0.632307 0.619207 0.129292
ITEM: TIMESTEP
150
ITEM: NUMBER OF ATOMS
2
ITEM: BOX BOUNDS pp pp pp
0.0000000000000000e+00 7.1200000000000001e+00
0.0000000000000000e+00 7.1200000000000001e+00
0.0000000000000000e+00 7.1200000000000001e+00
ITEM: ATOMS id type xs ys zs
1 1 0.746418 0.754258 0.248222
2 2 0.631289 0.617525 0.128121
ITEM: TIMESTEP
155
ITEM: NUMBER OF ATOMS
2
ITEM: BOX BOUNDS pp pp pp
0.0000000000000000e+00 7.1200000000000001e+00
0.0000000000000000e+00 7.1200000000000001e+00
0.0000000000000000e+00 7.1200000000000001e+00
ITEM: ATOMS id type xs ys zs
1 1 0.744238 0.751944 0.246011
2 2 0.635115 0.621588 0.132002
ITEM: TIMESTEP
160
ITEM: NUMBER OF ATOMS
2
ITEM: BOX BOUNDS pp pp pp
0.0000000000000000e+00 7.1200000000000001e+00
0.0000000000000000e+00 7.1200000000000001e+00
0.0000000000000000e+00 7.1200000000000001e+00
ITEM: ATOMS id type xs ys zs
1 1 0.745565 0.753823 0.247466
2 2 0.632785 0.618289 0.129449
ITEM: TIMESTEP
165
ITEM: NUMBER OF ATOMS
2
ITEM: BOX BOUNDS pp pp pp
0.0000000000000000e+00 7.1200000000000001e+00
0.0000000000000000e+00 7.1200000000000001e+00
0.0000000000000000e+00 7.1200000000000001e+00
ITEM: ATOMS id type xs ys zs
1 1 0.746023 0.75465 0.248009
2 2 0.631981 0.616838 0.128496
ITEM: TIMESTEP
170
ITEM: NUMBER OF ATOMS
2
ITEM: BOX BOUNDS pp pp pp
0.0000000000000000e+00 7.1200000000000001e+00
0.0000000000000000e+00 7.1200000000000001e+00
0.0000000000000000e+00 7.1200000000000001e+00
ITEM: ATOMS id type xs ys zs
1 1 0.743873 0.75233 0.245819
2 2 0.635756 0.62091 0.132339
ITEM: TIMESTEP
175
ITEM: NUMBER OF ATOMS
2
ITEM: BOX BOUNDS pp pp pp
0.0000000000000000e+00 7.1200000000000001e+00
0.0000000000000000e+00 7.1200000000000001e+00
0.0000000000000000e+00 7.1200000000000001e+00
ITEM: ATOMS id type xs ys zs
1 1 0.745286 0.754345 0.247371
2 2 0.633275 0.617372 0.129615
ITEM: TIMESTEP
180
ITEM: NUMBER OF ATOMS
2
ITEM: BOX BOUNDS pp pp pp
0.0000000000000000e+00 7.1200000000000001e+00
0.0000000000000000e+00 7.1200000000000001e+00
0.0000000000000000e+00 7.1200000000000001e+00
ITEM: ATOMS id type xs ys zs
1 1 0.745622 0.755035 0.247789
2 2 0.632685 0.616161 0.128882
ITEM: TIMESTEP
185
ITEM: NUMBER OF ATOMS
2
ITEM: BOX BOUNDS pp pp pp
0.0000000000000000e+00 7.1200000000000001e+00
0.0000000000000000e+00 7.1200000000000001e+00
0.0000000000000000e+00 7.1200000000000001e+00
ITEM: ATOMS id type xs ys zs
1 1 0.743509 0.752721 0.245629
2 2 0.636394 0.620224 0.132672
ITEM: TIMESTEP
190
ITEM: NUMBER OF ATOMS
2
ITEM: BOX BOUNDS pp pp pp
0.0000000000000000e+00 7.1200000000000001e+00
0.0000000000000000e+00 7.1200000000000001e+00
0.0000000000000000e+00 7.1200000000000001e+00
ITEM: ATOMS id type xs ys zs
1 1 0.745 0.754866 0.247271
2 2 0.633777 0.616458 0.129791
ITEM: TIMESTEP
195
ITEM: NUMBER OF ATOMS
2
ITEM: BOX BOUNDS pp pp pp
0.0000000000000000e+00 7.1200000000000001e+00
0.0000000000000000e+00 7.1200000000000001e+00
0.0000000000000000e+00 7.1200000000000001e+00
ITEM: ATOMS id type xs ys zs
1 1 0.745215 0.755416 0.247563
2 2 0.6334 0.615493 0.129278
ITEM: TIMESTEP
200
ITEM: NUMBER OF ATOMS
2
ITEM: BOX BOUNDS pp pp pp
0.0000000000000000e+00 7.1200000000000001e+00
0.0000000000000000e+00 7.1200000000000001e+00
0.0000000000000000e+00 7.1200000000000001e+00
ITEM: ATOMS id type xs ys zs
1 1 0.743148 0.753117 0.245442
2 2 0.637029 0.619529 0.133001
ITEM: TIMESTEP
205
ITEM: NUMBER OF ATOMS
2
ITEM: BOX BOUNDS pp pp pp
0.0000000000000000e+00 7.1200000000000001e+00
0.0000000000000000e+00 7.1200000000000001e+00
0.0000000000000000e+00 7.1200000000000001e+00
ITEM: ATOMS id type xs ys zs
1 1 0.744707 0.755385 0.247165
2 2 0.634291 0.615546 0.129977
ITEM: TIMESTEP
210
ITEM: NUMBER OF ATOMS
2
ITEM: BOX BOUNDS pp pp pp
0.0000000000000000e+00 7.1200000000000001e+00
0.0000000000000000e+00 7.1200000000000001e+00
0.0000000000000000e+00 7.1200000000000001e+00
ITEM: ATOMS id type xs ys zs
1 1 0.744801 0.755791 0.247331
2 2 0.634126 0.614834 0.129686
ITEM: TIMESTEP
215
ITEM: NUMBER OF ATOMS
2
ITEM: BOX BOUNDS pp pp pp
0.0000000000000000e+00 7.1200000000000001e+00
0.0000000000000000e+00 7.1200000000000001e+00
0.0000000000000000e+00 7.1200000000000001e+00
ITEM: ATOMS id type xs ys zs
1 1 0.742787 0.753519 0.245257
2 2 0.637661 0.618823 0.133326
ITEM: TIMESTEP
220
ITEM: NUMBER OF ATOMS
2
ITEM: BOX BOUNDS pp pp pp
0.0000000000000000e+00 7.1200000000000001e+00
0.0000000000000000e+00 7.1200000000000001e+00
0.0000000000000000e+00 7.1200000000000001e+00
ITEM: ATOMS id type xs ys zs
1 1 0.744406 0.755903 0.247052
2 2 0.63482 0.614638 0.130175
ITEM: TIMESTEP
225
ITEM: NUMBER OF ATOMS
2
ITEM: BOX BOUNDS pp pp pp
0.0000000000000000e+00 7.1200000000000001e+00
0.0000000000000000e+00 7.1200000000000001e+00
0.0000000000000000e+00 7.1200000000000001e+00
ITEM: ATOMS id type xs ys zs
1 1 0.744382 0.756162 0.247093
2 2 0.634862 0.614184 0.130103
ITEM: TIMESTEP
230
ITEM: NUMBER OF ATOMS
2
ITEM: BOX BOUNDS pp pp pp
0.0000000000000000e+00 7.1200000000000001e+00
0.0000000000000000e+00 7.1200000000000001e+00
0.0000000000000000e+00 7.1200000000000001e+00
ITEM: ATOMS id type xs ys zs
1 1 0.742428 0.753926 0.245074
2 2 0.638293 0.618108 0.133647
ITEM: TIMESTEP
235
ITEM: NUMBER OF ATOMS
2
ITEM: BOX BOUNDS pp pp pp
0.0000000000000000e+00 7.1200000000000001e+00
0.0000000000000000e+00 7.1200000000000001e+00
0.0000000000000000e+00 7.1200000000000001e+00
ITEM: ATOMS id type xs ys zs
1 1 0.744097 0.756419 0.246933
2 2 0.635362 0.613733 0.130384
ITEM: TIMESTEP
240
ITEM: NUMBER OF ATOMS
2
ITEM: BOX BOUNDS pp pp pp
0.0000000000000000e+00 7.1200000000000001e+00
0.0000000000000000e+00 7.1200000000000001e+00
0.0000000000000000e+00 7.1200000000000001e+00
ITEM: ATOMS id type xs ys zs
1 1 0.743956 0.756527 0.246849
2 2 0.63561 0.613542 0.130531
ITEM: TIMESTEP
245
ITEM: NUMBER OF ATOMS
2
ITEM: BOX BOUNDS pp pp pp
0.0000000000000000e+00 7.1200000000000001e+00
0.0000000000000000e+00 7.1200000000000001e+00
0.0000000000000000e+00 7.1200000000000001e+00
ITEM: ATOMS id type xs ys zs
1 1 0.742068 0.75434 0.244893
2 2 0.638923 0.617381 0.133965
ITEM: TIMESTEP
250
ITEM: NUMBER OF ATOMS
2
ITEM: BOX BOUNDS pp pp pp
0.0000000000000000e+00 7.1200000000000001e+00
0.0000000000000000e+00 7.1200000000000001e+00
0.0000000000000000e+00 7.1200000000000001e+00
ITEM: ATOMS id type xs ys zs
1 1 0.74378 0.756933 0.246807
2 2 0.635918 0.61283 0.130604
ITEM: TIMESTEP
255
ITEM: NUMBER OF ATOMS
2
ITEM: BOX BOUNDS pp pp pp
0.0000000000000000e+00 7.1200000000000001e+00
0.0000000000000000e+00 7.1200000000000001e+00
0.0000000000000000e+00 7.1200000000000001e+00
ITEM: ATOMS id type xs ys zs
1 1 0.743524 0.756889 0.2466
2 2 0.636368 0.612907 0.130968
ITEM: TIMESTEP
260
ITEM: NUMBER OF ATOMS
2
ITEM: BOX BOUNDS pp pp pp
0.0000000000000000e+00 7.1200000000000001e+00
0.0000000000000000e+00 7.1200000000000001e+00
0.0000000000000000e+00 7.1200000000000001e+00
ITEM: ATOMS id type xs ys zs
1 1 0.74171 0.754761 0.244713
2 2 0.639553 0.616643 0.13428
ITEM: TIMESTEP
265
ITEM: NUMBER OF ATOMS
2
ITEM: BOX BOUNDS pp pp pp
0.0000000000000000e+00 7.1200000000000001e+00
0.0000000000000000e+00 7.1200000000000001e+00
0.0000000000000000e+00 7.1200000000000001e+00
ITEM: ATOMS id type xs ys zs
1 1 0.743455 0.757444 0.246675
2 2 0.63649 0.611932 0.130838
ITEM: TIMESTEP
270
ITEM: NUMBER OF ATOMS
2
ITEM: BOX BOUNDS pp pp pp
0.0000000000000000e+00 7.1200000000000001e+00
0.0000000000000000e+00 7.1200000000000001e+00
0.0000000000000000e+00 7.1200000000000001e+00
ITEM: ATOMS id type xs ys zs
1 1 0.743086 0.757247 0.246345
2 2 0.637136 0.612279 0.131415
ITEM: TIMESTEP
275
ITEM: NUMBER OF ATOMS
2
ITEM: BOX BOUNDS pp pp pp
0.0000000000000000e+00 7.1200000000000001e+00
0.0000000000000000e+00 7.1200000000000001e+00
0.0000000000000000e+00 7.1200000000000001e+00
ITEM: ATOMS id type xs ys zs
1 1 0.74135 0.755188 0.244535
2 2 0.640184 0.615894 0.134593
ITEM: TIMESTEP
280
ITEM: NUMBER OF ATOMS
2
ITEM: BOX BOUNDS pp pp pp
0.0000000000000000e+00 7.1200000000000001e+00
0.0000000000000000e+00 7.1200000000000001e+00
0.0000000000000000e+00 7.1200000000000001e+00
ITEM: ATOMS id type xs ys zs
1 1 0.74312 0.757954 0.246534
2 2 0.637077 0.611037 0.131084
ITEM: TIMESTEP
285
ITEM: NUMBER OF ATOMS
2
ITEM: BOX BOUNDS pp pp pp
0.0000000000000000e+00 7.1200000000000001e+00
0.0000000000000000e+00 7.1200000000000001e+00
0.0000000000000000e+00 7.1200000000000001e+00
ITEM: ATOMS id type xs ys zs
1 1 0.742642 0.757601 0.246085
2 2 0.637916 0.611658 0.131872
ITEM: TIMESTEP
290
ITEM: NUMBER OF ATOMS
2
ITEM: BOX BOUNDS pp pp pp
0.0000000000000000e+00 7.1200000000000001e+00
0.0000000000000000e+00 7.1200000000000001e+00
0.0000000000000000e+00 7.1200000000000001e+00
ITEM: ATOMS id type xs ys zs
1 1 0.74099 0.755621 0.244358
2 2 0.640816 0.615133 0.134905
ITEM: TIMESTEP
295
ITEM: NUMBER OF ATOMS
2
ITEM: BOX BOUNDS pp pp pp
0.0000000000000000e+00 7.1200000000000001e+00
0.0000000000000000e+00 7.1200000000000001e+00
0.0000000000000000e+00 7.1200000000000001e+00
ITEM: ATOMS id type xs ys zs
1 1 0.742777 0.758462 0.246387
2 2 0.63768 0.610146 0.131343
ITEM: TIMESTEP
300
ITEM: NUMBER OF ATOMS
2
ITEM: BOX BOUNDS pp pp pp
0.0000000000000000e+00 7.1200000000000001e+00
0.0000000000000000e+00 7.1200000000000001e+00
0.0000000000000000e+00 7.1200000000000001e+00
ITEM: ATOMS id type xs ys zs
1 1 0.742193 0.757952 0.24582
2 2 0.638705 0.611042 0.132338
ITEM: TIMESTEP
305
ITEM: NUMBER OF ATOMS
2
ITEM: BOX BOUNDS pp pp pp
0.0000000000000000e+00 7.1200000000000001e+00
0.0000000000000000e+00 7.1200000000000001e+00
0.0000000000000000e+00 7.1200000000000001e+00
ITEM: ATOMS id type xs ys zs
1 1 0.740629 0.756062 0.244181
2 2 0.64145 0.61436 0.135215
ITEM: TIMESTEP
310
ITEM: NUMBER OF ATOMS
2
ITEM: BOX BOUNDS pp pp pp
0.0000000000000000e+00 7.1200000000000001e+00
0.0000000000000000e+00 7.1200000000000001e+00
0.0000000000000000e+00 7.1200000000000001e+00
ITEM: ATOMS id type xs ys zs
1 1 0.742424 0.758967 0.246231
2 2 0.638299 0.609259 0.131616
ITEM: TIMESTEP
315
ITEM: NUMBER OF ATOMS
2
ITEM: BOX BOUNDS pp pp pp
0.0000000000000000e+00 7.1200000000000001e+00
0.0000000000000000e+00 7.1200000000000001e+00
0.0000000000000000e+00 7.1200000000000001e+00
ITEM: ATOMS id type xs ys zs
1 1 0.741737 0.758299 0.245549
2 2 0.639505 0.610431 0.132813
ITEM: TIMESTEP
320
ITEM: NUMBER OF ATOMS
2
ITEM: BOX BOUNDS pp pp pp
0.0000000000000000e+00 7.1200000000000001e+00
0.0000000000000000e+00 7.1200000000000001e+00
0.0000000000000000e+00 7.1200000000000001e+00
ITEM: ATOMS id type xs ys zs
1 1 0.740266 0.756509 0.244004
2 2 0.642088 0.613574 0.135525
ITEM: TIMESTEP
325
ITEM: NUMBER OF ATOMS
2
ITEM: BOX BOUNDS pp pp pp
0.0000000000000000e+00 7.1200000000000001e+00
0.0000000000000000e+00 7.1200000000000001e+00
0.0000000000000000e+00 7.1200000000000001e+00
ITEM: ATOMS id type xs ys zs
1 1 0.742061 0.75947 0.246068
2 2 0.638936 0.608376 0.131903
ITEM: TIMESTEP
330
ITEM: NUMBER OF ATOMS
2
ITEM: BOX BOUNDS pp pp pp
0.0000000000000000e+00 7.1200000000000001e+00
0.0000000000000000e+00 7.1200000000000001e+00
0.0000000000000000e+00 7.1200000000000001e+00
ITEM: ATOMS id type xs ys zs
1 1 0.741275 0.758645 0.245273
2 2 0.640315 0.609825 0.133298
ITEM: TIMESTEP
335
ITEM: NUMBER OF ATOMS
2
ITEM: BOX BOUNDS pp pp pp
0.0000000000000000e+00 7.1200000000000001e+00
0.0000000000000000e+00 7.1200000000000001e+00
0.0000000000000000e+00 7.1200000000000001e+00
ITEM: ATOMS id type xs ys zs
1 1 0.7399 0.756963 0.243827
2 2 0.64273 0.612777 0.135836
ITEM: TIMESTEP
340
ITEM: NUMBER OF ATOMS
2
ITEM: BOX BOUNDS pp pp pp
0.0000000000000000e+00 7.1200000000000001e+00
0.0000000000000000e+00 7.1200000000000001e+00
0.0000000000000000e+00 7.1200000000000001e+00
ITEM: ATOMS id type xs ys zs
1 1 0.741689 0.759971 0.245896
2 2 0.63959 0.607497 0.132204
ITEM: TIMESTEP
345
ITEM: NUMBER OF ATOMS
2
ITEM: BOX BOUNDS pp pp pp
0.0000000000000000e+00 7.1200000000000001e+00
0.0000000000000000e+00 7.1200000000000001e+00
0.0000000000000000e+00 7.1200000000000001e+00
ITEM: ATOMS id type xs ys zs
1 1 0.740808 0.758988 0.244992
2 2 0.641136 0.609222 0.133791
ITEM: TIMESTEP
350
ITEM: NUMBER OF ATOMS
2
ITEM: BOX BOUNDS pp pp pp
0.0000000000000000e+00 7.1200000000000001e+00
0.0000000000000000e+00 7.1200000000000001e+00
0.0000000000000000e+00 7.1200000000000001e+00
ITEM: ATOMS id type xs ys zs
1 1 0.739531 0.757424 0.243649
2 2 0.643377 0.611968 0.136148
ITEM: TIMESTEP
355
ITEM: NUMBER OF ATOMS
2
ITEM: BOX BOUNDS pp pp pp
0.0000000000000000e+00 7.1200000000000001e+00
0.0000000000000000e+00 7.1200000000000001e+00
0.0000000000000000e+00 7.1200000000000001e+00
ITEM: ATOMS id type xs ys zs
1 1 0.741306 0.76047 0.245716
2 2 0.640262 0.606622 0.132519
ITEM: TIMESTEP
360
ITEM: NUMBER OF ATOMS
2
ITEM: BOX BOUNDS pp pp pp
0.0000000000000000e+00 7.1200000000000001e+00
0.0000000000000000e+00 7.1200000000000001e+00
0.0000000000000000e+00 7.1200000000000001e+00
ITEM: ATOMS id type xs ys zs
1 1 0.740334 0.75933 0.244706
2 2 0.641968 0.608622 0.134293
ITEM: TIMESTEP
365
ITEM: NUMBER OF ATOMS
2
ITEM: BOX BOUNDS pp pp pp
0.0000000000000000e+00 7.1200000000000001e+00
0.0000000000000000e+00 7.1200000000000001e+00
0.0000000000000000e+00 7.1200000000000001e+00
ITEM: ATOMS id type xs ys zs
1 1 0.739158 0.757891 0.24347
2 2 0.644031 0.611147 0.136463
ITEM: TIMESTEP
370
ITEM: NUMBER OF ATOMS
2
ITEM: BOX BOUNDS pp pp pp
0.0000000000000000e+00 7.1200000000000001e+00
0.0000000000000000e+00 7.1200000000000001e+00
0.0000000000000000e+00 7.1200000000000001e+00
ITEM: ATOMS id type xs ys zs
1 1 0.740913 0.760966 0.245528
2 2 0.640952 0.60575 0.13285
ITEM: TIMESTEP
375
ITEM: NUMBER OF ATOMS
2
ITEM: BOX BOUNDS pp pp pp
0.0000000000000000e+00 7.1200000000000001e+00
0.0000000000000000e+00 7.1200000000000001e+00
0.0000000000000000e+00 7.1200000000000001e+00
ITEM: ATOMS id type xs ys zs
1 1 0.739854 0.759671 0.244415
2 2 0.64281 0.608024 0.134804
ITEM: TIMESTEP
380
ITEM: NUMBER OF ATOMS
2
ITEM: BOX BOUNDS pp pp pp
0.0000000000000000e+00 7.1200000000000001e+00
0.0000000000000000e+00 7.1200000000000001e+00
0.0000000000000000e+00 7.1200000000000001e+00
ITEM: ATOMS id type xs ys zs
1 1 0.738781 0.758366 0.243289
2 2 0.644694 0.610315 0.136781
ITEM: TIMESTEP
385
ITEM: NUMBER OF ATOMS
2
ITEM: BOX BOUNDS pp pp pp
0.0000000000000000e+00 7.1200000000000001e+00
0.0000000000000000e+00 7.1200000000000001e+00
0.0000000000000000e+00 7.1200000000000001e+00
ITEM: ATOMS id type xs ys zs
1 1 0.740509 0.761461 0.245331
2 2 0.641661 0.604882 0.133196
ITEM: TIMESTEP
390
ITEM: NUMBER OF ATOMS
2
ITEM: BOX BOUNDS pp pp pp
0.0000000000000000e+00 7.1200000000000001e+00
0.0000000000000000e+00 7.1200000000000001e+00
0.0000000000000000e+00 7.1200000000000001e+00
ITEM: ATOMS id type xs ys zs
1 1 0.739368 0.76001 0.244119
2 2 0.643663 0.607428 0.135323
ITEM: TIMESTEP
395
ITEM: NUMBER OF ATOMS
2
ITEM: BOX BOUNDS pp pp pp
0.0000000000000000e+00 7.1200000000000001e+00
0.0000000000000000e+00 7.1200000000000001e+00
0.0000000000000000e+00 7.1200000000000001e+00
ITEM: ATOMS id type xs ys zs
1 1 0.738399 0.758846 0.243105
2 2 0.645365 0.609471 0.137104
ITEM: TIMESTEP
400
ITEM: NUMBER OF ATOMS
2
ITEM: BOX BOUNDS pp pp pp
0.0000000000000000e+00 7.1200000000000001e+00
0.0000000000000000e+00 7.1200000000000001e+00
0.0000000000000000e+00 7.1200000000000001e+00
ITEM: ATOMS id type xs ys zs
1 1 0.740094 0.761953 0.245125
2 2 0.64239 0.604017 0.133558
ITEM: TIMESTEP
405
ITEM: NUMBER OF ATOMS
2
ITEM: BOX BOUNDS pp pp pp
0.0000000000000000e+00 7.1200000000000001e+00
0.0000000000000000e+00 7.1200000000000001e+00
0.0000000000000000e+00 7.1200000000000001e+00
ITEM: ATOMS id type xs ys zs
1 1 0.738876 0.76035 0.243819
2 2 0.644527 0.606832 0.135851
ITEM: TIMESTEP
410
ITEM: NUMBER OF ATOMS
2
ITEM: BOX BOUNDS pp pp pp
0.0000000000000000e+00 7.1200000000000001e+00
0.0000000000000000e+00 7.1200000000000001e+00
0.0000000000000000e+00 7.1200000000000001e+00
ITEM: ATOMS id type xs ys zs
1 1 0.73801 0.759334 0.242918
2 2 0.646047 0.608616 0.137432
ITEM: TIMESTEP
415
ITEM: NUMBER OF ATOMS
2
ITEM: BOX BOUNDS pp pp pp
0.0000000000000000e+00 7.1200000000000001e+00
0.0000000000000000e+00 7.1200000000000001e+00
0.0000000000000000e+00 7.1200000000000001e+00
ITEM: ATOMS id type xs ys zs
1 1 0.739667 0.762444 0.24491
2 2 0.643138 0.603156 0.133936
ITEM: TIMESTEP
420
ITEM: NUMBER OF ATOMS
2
ITEM: BOX BOUNDS pp pp pp
0.0000000000000000e+00 7.1200000000000001e+00
0.0000000000000000e+00 7.1200000000000001e+00
0.0000000000000000e+00 7.1200000000000001e+00
ITEM: ATOMS id type xs ys zs
1 1 0.738378 0.76069 0.243513
2 2 0.645402 0.606235 0.136388
ITEM: TIMESTEP
425
ITEM: NUMBER OF ATOMS
2
ITEM: BOX BOUNDS pp pp pp
0.0000000000000000e+00 7.1200000000000001e+00
0.0000000000000000e+00 7.1200000000000001e+00
0.0000000000000000e+00 7.1200000000000001e+00
ITEM: ATOMS id type xs ys zs
1 1 0.737615 0.759827 0.242727
2 2 0.646741 0.60775 0.137767
ITEM: TIMESTEP
430
ITEM: NUMBER OF ATOMS
2
ITEM: BOX BOUNDS pp pp pp
0.0000000000000000e+00 7.1200000000000001e+00
0.0000000000000000e+00 7.1200000000000001e+00
0.0000000000000000e+00 7.1200000000000001e+00
ITEM: ATOMS id type xs ys zs
1 1 0.73923 0.762933 0.244685
2 2 0.643907 0.602297 0.13433
ITEM: TIMESTEP
435
ITEM: NUMBER OF ATOMS
2
ITEM: BOX BOUNDS pp pp pp
0.0000000000000000e+00 7.1200000000000001e+00
0.0000000000000000e+00 7.1200000000000001e+00
0.0000000000000000e+00 7.1200000000000001e+00
ITEM: ATOMS id type xs ys zs
1 1 0.737872 0.76103 0.243202
2 2 0.646289 0.605638 0.136933
ITEM: TIMESTEP
440
ITEM: NUMBER OF ATOMS
2
ITEM: BOX BOUNDS pp pp pp
0.0000000000000000e+00 7.1200000000000001e+00
0.0000000000000000e+00 7.1200000000000001e+00
0.0000000000000000e+00 7.1200000000000001e+00
ITEM: ATOMS id type xs ys zs
1 1 0.737212 0.760326 0.242532
2 2 0.647449 0.606874 0.13811
ITEM: TIMESTEP
445
ITEM: NUMBER OF ATOMS
2
ITEM: BOX BOUNDS pp pp pp
0.0000000000000000e+00 7.1200000000000001e+00
0.0000000000000000e+00 7.1200000000000001e+00
0.0000000000000000e+00 7.1200000000000001e+00
ITEM: ATOMS id type xs ys zs
1 1 0.73878 0.763421 0.244451
2 2 0.644696 0.60144 0.13474
ITEM: TIMESTEP
450
ITEM: NUMBER OF ATOMS
2
ITEM: BOX BOUNDS pp pp pp
0.0000000000000000e+00 7.1200000000000001e+00
0.0000000000000000e+00 7.1200000000000001e+00
0.0000000000000000e+00 7.1200000000000001e+00
ITEM: ATOMS id type xs ys zs
1 1 0.73736 0.761371 0.242886
2 2 0.647189 0.605038 0.137488
ITEM: TIMESTEP
455
ITEM: NUMBER OF ATOMS
2
ITEM: BOX BOUNDS pp pp pp
0.0000000000000000e+00 7.1200000000000001e+00
0.0000000000000000e+00 7.1200000000000001e+00
0.0000000000000000e+00 7.1200000000000001e+00
ITEM: ATOMS id type xs ys zs
1 1 0.7368 0.760831 0.242331
2 2 0.648171 0.605987 0.138462
ITEM: TIMESTEP
460
ITEM: NUMBER OF ATOMS
2
ITEM: BOX BOUNDS pp pp pp
0.0000000000000000e+00 7.1200000000000001e+00
0.0000000000000000e+00 7.1200000000000001e+00
0.0000000000000000e+00 7.1200000000000001e+00
ITEM: ATOMS id type xs ys zs
1 1 0.738318 0.763908 0.244208
2 2 0.645507 0.600586 0.135168
ITEM: TIMESTEP
465
ITEM: NUMBER OF ATOMS
2
ITEM: BOX BOUNDS pp pp pp
0.0000000000000000e+00 7.1200000000000001e+00
0.0000000000000000e+00 7.1200000000000001e+00
0.0000000000000000e+00 7.1200000000000001e+00
ITEM: ATOMS id type xs ys zs
1 1 0.73684 0.761715 0.242565
2 2 0.648101 0.604436 0.138051
ITEM: TIMESTEP
470
ITEM: NUMBER OF ATOMS
2
ITEM: BOX BOUNDS pp pp pp
0.0000000000000000e+00 7.1200000000000001e+00
0.0000000000000000e+00 7.1200000000000001e+00
0.0000000000000000e+00 7.1200000000000001e+00
ITEM: ATOMS id type xs ys zs
1 1 0.736379 0.761341 0.242124
2 2 0.64891 0.605091 0.138825
ITEM: TIMESTEP
475
ITEM: NUMBER OF ATOMS
2
ITEM: BOX BOUNDS pp pp pp
0.0000000000000000e+00 7.1200000000000001e+00
0.0000000000000000e+00 7.1200000000000001e+00
0.0000000000000000e+00 7.1200000000000001e+00
ITEM: ATOMS id type xs ys zs
1 1 0.737843 0.764394 0.243954
2 2 0.64634 0.599733 0.135613
ITEM: TIMESTEP
480
ITEM: NUMBER OF ATOMS
2
ITEM: BOX BOUNDS pp pp pp
0.0000000000000000e+00 7.1200000000000001e+00
0.0000000000000000e+00 7.1200000000000001e+00
0.0000000000000000e+00 7.1200000000000001e+00
ITEM: ATOMS id type xs ys zs
1 1 0.736313 0.76206 0.242239
2 2 0.649026 0.603831 0.138624
ITEM: TIMESTEP
485
ITEM: NUMBER OF ATOMS
2
ITEM: BOX BOUNDS pp pp pp
0.0000000000000000e+00 7.1200000000000001e+00
0.0000000000000000e+00 7.1200000000000001e+00
0.0000000000000000e+00 7.1200000000000001e+00
ITEM: ATOMS id type xs ys zs
1 1 0.735948 0.761857 0.241911
2 2 0.649666 0.604186 0.139199
ITEM: TIMESTEP
490
ITEM: NUMBER OF ATOMS
2
ITEM: BOX BOUNDS pp pp pp
0.0000000000000000e+00 7.1200000000000001e+00
0.0000000000000000e+00 7.1200000000000001e+00
0.0000000000000000e+00 7.1200000000000001e+00
ITEM: ATOMS id type xs ys zs
1 1 0.737356 0.764879 0.24369
2 2 0.647196 0.598881 0.136076
ITEM: TIMESTEP
495
ITEM: NUMBER OF ATOMS
2
ITEM: BOX BOUNDS pp pp pp
0.0000000000000000e+00 7.1200000000000001e+00
0.0000000000000000e+00 7.1200000000000001e+00
0.0000000000000000e+00 7.1200000000000001e+00
ITEM: ATOMS id type xs ys zs
1 1 0.735778 0.762407 0.241907
2 2 0.649966 0.603221 0.139207
ITEM: TIMESTEP
500
ITEM: NUMBER OF ATOMS
2
ITEM: BOX BOUNDS pp pp pp
0.0000000000000000e+00 7.1200000000000001e+00
0.0000000000000000e+00 7.1200000000000001e+00
0.0000000000000000e+00 7.1200000000000001e+00
ITEM: ATOMS id type xs ys zs
1 1 0.735506 0.762378 0.241691
2 2 0.650442 0.603272 0.139586
