ITEM: TIMESTEP
5000
ITEM: NUMBER OF ATOMS
5184
ITEM: BOX BOUNDS pp pp pp
0.0000000000000000e+00 4.2719999999999999e+01
0.0000000000000000e+00 4.2719999999999999e+01
0.0000000000000000e+00 6.0000000000000000e+01
ITEM: ATOMS id type xs ys zs
1 1 0 0 0
3 1 0.0416667 0.0416667 0.0296667
9 2 0.0208333 0.0208333 0.0148333
11 2 0.0625 0.0625 0.0148333
16 2 0.0625 0.0208333 0.0445
21 2 0.0208333 0.0625 0.0445
865 1 0.166667 0 0
867 1 0.208333 0.0416667 0.0296667
873 2 0.1875 0.0208333 0.0148333
885 2 0.1875 0.0625 0.0445
875 2 0.229167 0.0625 0.0148333
880 2 0.229167 0.0208333 0.0445
1729 1 0.333333 0 0
1737 2 0.354167 0.0208333 0.0148333
1749 2 0.354167 0.0625 0.0445
1731 1 0.375 0.0416667 0.0296667
1739 2 0.395833 0.0625 0.0148333
1744 2 0.395833 0.0208333 0.0445
2593 1 0.5 0 0
2595 1 0.541667 0.0416667 0.0296667
2601 2 0.520833 0.0208333 0.0148333
2603 2 0.5625 0.0625 0.0148333
2608 2 0.5625 0.0208333 0.0445
2613 2 0.520833 0.0625 0.0445
3457 1 0.666667 0 0
3459 1 0.708333 0.0416667 0.0296667
3465 2 0.6875 0.0208333 0.0148333
3477 2 0.6875 0.0625 0.0445
3467 2 0.729167 0.0625 0.0148333
3472 2 0.729167 0.0208333 0.0445
4321 1 0.833333 0 0
4329 2 0.854167 0.0208333 0.0148333
4341 2 0.854167 0.0625 0.0445
4323 1 0.875 0.0416667 0.0296667
4331 2 0.895833 0.0625 0.0148333
4336 2 0.895833 0.0208333 0.0445
6 1 0.125 0.125 0.0296667
7 1 0.0833333 0.0833333 0
14 2 0.104167 0.104167 0.0148333
10 2 0.145833 0.104167 0.0445
871 1 0.25 0.0833333 0
878 2 0.270833 0.104167 0.0148333
870 1 0.291667 0.125 0.0296667
874 2 0.3125 0.104167 0.0445
1735 1 0.416667 0.0833333 0
1734 1 0.458333 0.125 0.0296667
1738 2 0.479167 0.104167 0.0445
1742 2 0.4375 0.104167 0.0148333
2598 1 0.625 0.125 0.0296667
2599 1 0.583333 0.0833333 0
2606 2 0.604167 0.104167 0.0148333
2602 2 0.645833 0.104167 0.0445
3463 1 0.75 0.0833333 0
3470 2 0.770833 0.104167 0.0148333
3462 1 0.791667 0.125 0.0296667
3466 2 0.8125 0.104167 0.0445
4327 1 0.916667 0.0833333 0
4326 1 0.958333 0.125 0.0296667
4330 2 0.979167 0.104167 0.0445
4334 2 0.9375 0.104167 0.0148333
145 1 0 0.166667 0
147 1 0.0416667 0.208333 0.0296667
153 2 0.0208333 0.1875 0.0148333
160 2 0.0625 0.1875 0.0445
22 2 0.104167 0.145833 0.0445
23 2 0.145833 0.145833 0.0148333
1009 1 0.166667 0.166667 0
1011 1 0.208333 0.208333 0.0296667
1017 2 0.1875 0.1875 0.0148333
886 2 0.270833 0.145833 0.0445
1024 2 0.229167 0.1875 0.0445
887 2 0.3125 0.145833 0.0148333
1873 1 0.333333 0.166667 0
1881 2 0.354167 0.1875 0.0148333
1875 1 0.375 0.208333 0.0296667
1888 2 0.395833 0.1875 0.0445
1750 2 0.4375 0.145833 0.0445
1751 2 0.479167 0.145833 0.0148333
2737 1 0.5 0.166667 0
2739 1 0.541667 0.208333 0.0296667
2745 2 0.520833 0.1875 0.0148333
2752 2 0.5625 0.1875 0.0445
2614 2 0.604167 0.145833 0.0445
2615 2 0.645833 0.145833 0.0148333
3601 1 0.666667 0.166667 0
3603 1 0.708333 0.208333 0.0296667
3609 2 0.6875 0.1875 0.0148333
3478 2 0.770833 0.145833 0.0445
3616 2 0.729167 0.1875 0.0445
3479 2 0.8125 0.145833 0.0148333
4465 1 0.833333 0.166667 0
4473 2 0.854167 0.1875 0.0148333
4467 1 0.875 0.208333 0.0296667
4480 2 0.895833 0.1875 0.0445
4342 2 0.9375 0.145833 0.0445
4343 2 0.979167 0.145833 0.0148333
155 2 0.0625 0.229167 0.0148333
165 2 0.0208333 0.229167 0.0445
151 1 0.0833333 0.25 0
158 2 0.104167 0.270833 0.0148333
154 2 0.145833 0.270833 0.0445
1029 2 0.1875 0.229167 0.0445
1015 1 0.25 0.25 0
1019 2 0.229167 0.229167 0.0148333
1022 2 0.270833 0.270833 0.0148333
1018 2 0.3125 0.270833 0.0445
1893 2 0.354167 0.229167 0.0445
1879 1 0.416667 0.25 0
1883 2 0.395833 0.229167 0.0148333
1882 2 0.479167 0.270833 0.0445
1886 2 0.4375 0.270833 0.0148333
2747 2 0.5625 0.229167 0.0148333
2757 2 0.520833 0.229167 0.0445
2743 1 0.583333 0.25 0
2750 2 0.604167 0.270833 0.0148333
2746 2 0.645833 0.270833 0.0445
3621 2 0.6875 0.229167 0.0445
3607 1 0.75 0.25 0
3611 2 0.729167 0.229167 0.0148333
3614 2 0.770833 0.270833 0.0148333
3610 2 0.8125 0.270833 0.0445
4485 2 0.854167 0.229167 0.0445
4471 1 0.916667 0.25 0
4475 2 0.895833 0.229167 0.0148333
4474 2 0.979167 0.270833 0.0445
4478 2 0.9375 0.270833 0.0148333
289 1 0 0.333333 0
297 2 0.0208333 0.354167 0.0148333
304 2 0.0625 0.354167 0.0445
150 1 0.125 0.291667 0.0296667
166 2 0.104167 0.3125 0.0445
167 2 0.145833 0.3125 0.0148333
1153 1 0.166667 0.333333 0
1161 2 0.1875 0.354167 0.0148333
1030 2 0.270833 0.3125 0.0445
1168 2 0.229167 0.354167 0.0445
1014 1 0.291667 0.291667 0.0296667
1031 2 0.3125 0.3125 0.0148333
2017 1 0.333333 0.333333 0
2025 2 0.354167 0.354167 0.0148333
2032 2 0.395833 0.354167 0.0445
1878 1 0.458333 0.291667 0.0296667
1894 2 0.4375 0.3125 0.0445
1895 2 0.479167 0.3125 0.0148333
2881 1 0.5 0.333333 0
2889 2 0.520833 0.354167 0.0148333
2896 2 0.5625 0.354167 0.0445
2742 1 0.625 0.291667 0.0296667
2758 2 0.604167 0.3125 0.0445
2759 2 0.645833 0.3125 0.0148333
3745 1 0.666667 0.333333 0
3753 2 0.6875 0.354167 0.0148333
3622 2 0.770833 0.3125 0.0445
3760 2 0.729167 0.354167 0.0445
3606 1 0.791667 0.291667 0.0296667
3623 2 0.8125 0.3125 0.0148333
4609 1 0.833333 0.333333 0
4617 2 0.854167 0.354167 0.0148333
4624 2 0.895833 0.354167 0.0445
4470 1 0.958333 0.291667 0.0296667
4486 2 0.9375 0.3125 0.0445
4487 2 0.979167 0.3125 0.0148333
291 1 0.0416667 0.375 0.0296667
299 2 0.0625 0.395833 0.0148333
309 2 0.0208333 0.395833 0.0445
295 1 0.0833333 0.416667 0
1155 1 0.208333 0.375 0.0296667
1173 2 0.1875 0.395833 0.0445
1159 1 0.25 0.416667 0
1163 2 0.229167 0.395833 0.0148333
2037 2 0.354167 0.395833 0.0445
2019 1 0.375 0.375 0.0296667
2023 1 0.416667 0.416667 0
2027 2 0.395833 0.395833 0.0148333
2883 1 0.541667 0.375 0.0296667
2891 2 0.5625 0.395833 0.0148333
2901 2 0.520833 0.395833 0.0445
2887 1 0.583333 0.416667 0
3747 1 0.708333 0.375 0.0296667
3765 2 0.6875 0.395833 0.0445
3751 1 0.75 0.416667 0
3755 2 0.729167 0.395833 0.0148333
4629 2 0.854167 0.395833 0.0445
4611 1 0.875 0.375 0.0296667
4615 1 0.916667 0.416667 0
4619 2 0.895833 0.395833 0.0148333
294 1 0.125 0.458333 0.0296667
302 2 0.104167 0.4375 0.0148333
310 2 0.104167 0.479167 0.0445
298 2 0.145833 0.4375 0.0445
311 2 0.145833 0.479167 0.0148333
1166 2 0.270833 0.4375 0.0148333
1174 2 0.270833 0.479167 0.0445
1158 1 0.291667 0.458333 0.0296667
1162 2 0.3125 0.4375 0.0445
1175 2 0.3125 0.479167 0.0148333
2022 1 0.458333 0.458333 0.0296667
2026 2 0.479167 0.4375 0.0445
2030 2 0.4375 0.4375 0.0148333
2038 2 0.4375 0.479167 0.0445
2039 2 0.479167 0.479167 0.0148333
2886 1 0.625 0.458333 0.0296667
2894 2 0.604167 0.4375 0.0148333
2902 2 0.604167 0.479167 0.0445
2890 2 0.645833 0.4375 0.0445
2903 2 0.645833 0.479167 0.0148333
3758 2 0.770833 0.4375 0.0148333
3766 2 0.770833 0.479167 0.0445
3750 1 0.791667 0.458333 0.0296667
3754 2 0.8125 0.4375 0.0445
3767 2 0.8125 0.479167 0.0148333
4614 1 0.958333 0.458333 0.0296667
4618 2 0.979167 0.4375 0.0445
4622 2 0.9375 0.4375 0.0148333
4630 2 0.9375 0.479167 0.0445
4631 2 0.979167 0.479167 0.0148333
433 1 0 0.5 0
435 1 0.0416667 0.541667 0.0296667
441 2 0.0208333 0.520833 0.0148333
443 2 0.0625 0.5625 0.0148333
448 2 0.0625 0.520833 0.0445
453 2 0.0208333 0.5625 0.0445
1297 1 0.166667 0.5 0
1299 1 0.208333 0.541667 0.0296667
1305 2 0.1875 0.520833 0.0148333
1317 2 0.1875 0.5625 0.0445
1307 2 0.229167 0.5625 0.0148333
1312 2 0.229167 0.520833 0.0445
2161 1 0.333333 0.5 0
2169 2 0.354167 0.520833 0.0148333
2181 2 0.354167 0.5625 0.0445
2163 1 0.375 0.541667 0.0296667
2171 2 0.395833 0.5625 0.0148333
2176 2 0.395833 0.520833 0.0445
3025 1 0.5 0.5 0
3027 1 0.541667 0.541667 0.0296667
3033 2 0.520833 0.520833 0.0148333
3035 2 0.5625 0.5625 0.0148333
3040 2 0.5625 0.520833 0.0445
3045 2 0.520833 0.5625 0.0445
3889 1 0.666667 0.5 0
3891 1 0.708333 0.541667 0.0296667
3897 2 0.6875 0.520833 0.0148333
3909 2 0.6875 0.5625 0.0445
3899 2 0.729167 0.5625 0.0148333
3904 2 0.729167 0.520833 0.0445
4753 1 0.833333 0.5 0
4761 2 0.854167 0.520833 0.0148333
4773 2 0.854167 0.5625 0.0445
4755 1 0.875 0.541667 0.0296667
4763 2 0.895833 0.5625 0.0148333
4768 2 0.895833 0.520833 0.0445
438 1 0.125 0.625 0.0296667
439 1 0.0833333 0.583333 0
446 2 0.104167 0.604167 0.0148333
442 2 0.145833 0.604167 0.0445
1303 1 0.25 0.583333 0
1310 2 0.270833 0.604167 0.0148333
1302 1 0.291667 0.625 0.0296667
1306 2 0.3125 0.604167 0.0445
2167 1 0.416667 0.583333 0
2166 1 0.458333 0.625 0.0296667
2170 2 0.479167 0.604167 0.0445
2174 2 0.4375 0.604167 0.0148333
3030 1 0.625 0.625 0.0296667
3031 1 0.583333 0.583333 0
3038 2 0.604167 0.604167 0.0148333
3034 2 0.645833 0.604167 0.0445
3895 1 0.75 0.583333 0
3902 2 0.770833 0.604167 0.0148333
3894 1 0.791667 0.625 0.0296667
3898 2 0.8125 0.604167 0.0445
4759 1 0.916667 0.583333 0
4758 1 0.958333 0.625 0.0296667
4762 2 0.979167 0.604167 0.0445
4766 2 0.9375 0.604167 0.0148333
577 1 0 0.666667 0
579 1 0.0416667 0.708333 0.0296667
585 2 0.0208333 0.6875 0.0148333
592 2 0.0625 0.6875 0.0445
454 2 0.104167 0.645833 0.0445
455 2 0.145833 0.645833 0.0148333
1441 1 0.166667 0.666667 0
1443 1 0.208333 0.708333 0.0296667
1449 2 0.1875 0.6875 0.0148333
1318 2 0.270833 0.645833 0.0445
1456 2 0.229167 0.6875 0.0445
1319 2 0.3125 0.645833 0.0148333
2305 1 0.333333 0.666667 0
2313 2 0.354167 0.6875 0.0148333
2307 1 0.375 0.708333 0.0296667
2320 2 0.395833 0.6875 0.0445
2182 2 0.4375 0.645833 0.0445
2183 2 0.479167 0.645833 0.0148333
3169 1 0.5 0.666667 0
3171 1 0.541667 0.708333 0.0296667
3177 2 0.520833 0.6875 0.0148333
3184 2 0.5625 0.6875 0.0445
3046 2 0.604167 0.645833 0.0445
3047 2 0.645833 0.645833 0.0148333
4033 1 0.666667 0.666667 0
4035 1 0.708333 0.708333 0.0296667
4041 2 0.6875 0.6875 0.0148333
3910 2 0.770833 0.645833 0.0445
4048 2 0.729167 0.6875 0.0445
3911 2 0.8125 0.645833 0.0148333
4897 1 0.833333 0.666667 0
4905 2 0.854167 0.6875 0.0148333
4899 1 0.875 0.708333 0.0296667
4912 2 0.895833 0.6875 0.0445
4774 2 0.9375 0.645833 0.0445
4775 2 0.979167 0.645833 0.0148333
587 2 0.0625 0.729167 0.0148333
597 2 0.0208333 0.729167 0.0445
583 1 0.0833333 0.75 0
590 2 0.104167 0.770833 0.0148333
586 2 0.145833 0.770833 0.0445
1461 2 0.1875 0.729167 0.0445
1447 1 0.25 0.75 0
1451 2 0.229167 0.729167 0.0148333
1454 2 0.270833 0.770833 0.0148333
1450 2 0.3125 0.770833 0.0445
2325 2 0.354167 0.729167 0.0445
2311 1 0.416667 0.75 0
2315 2 0.395833 0.729167 0.0148333
2314 2 0.479167 0.770833 0.0445
2318 2 0.4375 0.770833 0.0148333
3179 2 0.5625 0.729167 0.0148333
3189 2 0.520833 0.729167 0.0445
3175 1 0.583333 0.75 0
3182 2 0.604167 0.770833 0.0148333
3178 2 0.645833 0.770833 0.0445
4053 2 0.6875 0.729167 0.0445
4039 1 0.75 0.75 0
4043 2 0.729167 0.729167 0.0148333
4046 2 0.770833 0.770833 0.0148333
4042 2 0.8125 0.770833 0.0445
4917 2 0.854167 0.729167 0.0445
4903 1 0.916667 0.75 0
4907 2 0.895833 0.729167 0.0148333
4906 2 0.979167 0.770833 0.0445
4910 2 0.9375 0.770833 0.0148333
721 1 0 0.833333 0
729 2 0.0208333 0.854167 0.0148333
736 2 0.0625 0.854167 0.0445
582 1 0.125 0.791667 0.0296667
598 2 0.104167 0.8125 0.0445
599 2 0.145833 0.8125 0.0148333
1585 1 0.166667 0.833333 0
1593 2 0.1875 0.854167 0.0148333
1462 2 0.270833 0.8125 0.0445
1600 2 0.229167 0.854167 0.0445
1446 1 0.291667 0.791667 0.0296667
1463 2 0.3125 0.8125 0.0148333
2449 1 0.333333 0.833333 0
2457 2 0.354167 0.854167 0.0148333
2464 2 0.395833 0.854167 0.0445
2310 1 0.458333 0.791667 0.0296667
2326 2 0.4375 0.8125 0.0445
2327 2 0.479167 0.8125 0.0148333
3313 1 0.5 0.833333 0
3321 2 0.520833 0.854167 0.0148333
3328 2 0.5625 0.854167 0.0445
3174 1 0.625 0.791667 0.0296667
3190 2 0.604167 0.8125 0.0445
3191 2 0.645833 0.8125 0.0148333
4177 1 0.666667 0.833333 0
4185 2 0.6875 0.854167 0.0148333
4054 2 0.770833 0.8125 0.0445
4192 2 0.729167 0.854167 0.0445
4038 1 0.791667 0.791667 0.0296667
4055 2 0.8125 0.8125 0.0148333
5041 1 0.833333 0.833333 0
5049 2 0.854167 0.854167 0.0148333
5056 2 0.895833 0.854167 0.0445
4902 1 0.958333 0.791667 0.0296667
4918 2 0.9375 0.8125 0.0445
4919 2 0.979167 0.8125 0.0148333
723 1 0.0416667 0.875 0.0296667
731 2 0.0625 0.895833 0.0148333
741 2 0.0208333 0.895833 0.0445
727 1 0.0833333 0.916667 0
1587 1 0.208333 0.875 0.0296667
1605 2 0.1875 0.895833 0.0445
1591 1 0.25 0.916667 0
1595 2 0.229167 0.895833 0.0148333
2469 2 0.354167 0.895833 0.0445
2451 1 0.375 0.875 0.0296667
2455 1 0.416667 0.916667 0
2459 2 0.395833 0.895833 0.0148333
3315 1 0.541667 0.875 0.0296667
3323 2 0.5625 0.895833 0.0148333
3333 2 0.520833 0.895833 0.0445
3319 1 0.583333 0.916667 0
4179 1 0.708333 0.875 0.0296667
4197 2 0.6875 0.895833 0.0445
4183 1 0.75 0.916667 0
4187 2 0.729167 0.895833 0.0148333
5061 2 0.854167 0.895833 0.0445
5043 1 0.875 0.875 0.0296667
5047 1 0.916667 0.916667 0
5051 2 0.895833 0.895833 0.0148333
726 1 0.125 0.958333 0.0296667
734 2 0.104167 0.9375 0.0148333
742 2 0.104167 0.979167 0.0445
730 2 0.145833 0.9375 0.0445
743 2 0.145833 0.979167 0.0148333
1598 2 0.270833 0.9375 0.0148333
1606 2 0.270833 0.979167 0.0445
1590 1 0.291667 0.958333 0.0296667
1594 2 0.3125 0.9375 0.0445
1607 2 0.3125 0.979167 0.0148333
2454 1 0.458333 0.958333 0.0296667
2458 2 0.479167 0.9375 0.0445
2462 2 0.4375 0.9375 0.0148333
2470 2 0.4375 0.979167 0.0445
2471 2 0.479167 0.979167 0.0148333
3318 1 0.625 0.958333 0.0296667
3326 2 0.604167 0.9375 0.0148333
3334 2 0.604167 0.979167 0.0445
3322 2 0.645833 0.9375 0.0445
3335 2 0.645833 0.979167 0.0148333
4190 2 0.770833 0.9375 0.0148333
4198 2 0.770833 0.979167 0.0445
4182 1 0.791667 0.958333 0.0296667
4186 2 0.8125 0.9375 0.0445
4199 2 0.8125 0.979167 0.0148333
5046 1 0.958333 0.958333 0.0296667
5050 2 0.979167 0.9375 0.0445
5054 2 0.9375 0.9375 0.0148333
5062 2 0.9375 0.979167 0.0445
5063 2 0.979167 0.979167 0.0148333
4 1 0.0833333 0 0.0593333
8 1 0.125 0.0416667 0.089
12 2 0.104167 0.0208333 0.0741667
18 2 0.145833 0.0625 0.0741667
868 1 0.25 0 0.0593333
876 2 0.270833 0.0208333 0.0741667
872 1 0.291667 0.0416667 0.089
882 2 0.3125 0.0625 0.0741667
1732 1 0.416667 0 0.0593333
1736 1 0.458333 0.0416667 0.089
1740 2 0.4375 0.0208333 0.0741667
1746 2 0.479167 0.0625 0.0741667
2596 1 0.583333 0 0.0593333
2600 1 0.625 0.0416667 0.089
2604 2 0.604167 0.0208333 0.0741667
2610 2 0.645833 0.0625 0.0741667
3460 1 0.75 0 0.0593333
3468 2 0.770833 0.0208333 0.0741667
3464 1 0.791667 0.0416667 0.089
3474 2 0.8125 0.0625 0.0741667
4324 1 0.916667 0 0.0593333
4328 1 0.958333 0.0416667 0.089
4332 2 0.9375 0.0208333 0.0741667
4338 2 0.979167 0.0625 0.0741667
2 1 0 0.0833333 0.0593333
5 1 0.0416667 0.125 0.089
13 2 0.0208333 0.104167 0.0741667
866 1 0.166667 0.0833333 0.0593333
869 1 0.208333 0.125 0.089
877 2 0.1875 0.104167 0.0741667
1730 1 0.333333 0.0833333 0.0593333
1741 2 0.354167 0.104167 0.0741667
1733 1 0.375 0.125 0.089
2594 1 0.5 0.0833333 0.0593333
2597 1 0.541667 0.125 0.089
2605 2 0.520833 0.104167 0.0741667
3458 1 0.666667 0.0833333 0.0593333
3461 1 0.708333 0.125 0.089
3469 2 0.6875 0.104167 0.0741667
4322 1 0.833333 0.0833333 0.0593333
4333 2 0.854167 0.104167 0.0741667
4325 1 0.875 0.125 0.089
15 2 0.0625 0.145833 0.0741667
148 1 0.0833333 0.166667 0.0593333
152 1 0.125 0.208333 0.089
156 2 0.104167 0.1875 0.0741667
879 2 0.229167 0.145833 0.0741667
1012 1 0.25 0.166667 0.0593333
1020 2 0.270833 0.1875 0.0741667
1016 1 0.291667 0.208333 0.089
1743 2 0.395833 0.145833 0.0741667
1876 1 0.416667 0.166667 0.0593333
1880 1 0.458333 0.208333 0.089
1884 2 0.4375 0.1875 0.0741667
2607 2 0.5625 0.145833 0.0741667
2740 1 0.583333 0.166667 0.0593333
2744 1 0.625 0.208333 0.089
2748 2 0.604167 0.1875 0.0741667
3471 2 0.729167 0.145833 0.0741667
3604 1 0.75 0.166667 0.0593333
3612 2 0.770833 0.1875 0.0741667
3608 1 0.791667 0.208333 0.089
4335 2 0.895833 0.145833 0.0741667
4468 1 0.916667 0.166667 0.0593333
4472 1 0.958333 0.208333 0.089
4476 2 0.9375 0.1875 0.0741667
146 1 0 0.25 0.0593333
157 2 0.0208333 0.270833 0.0741667
162 2 0.145833 0.229167 0.0741667
1010 1 0.166667 0.25 0.0593333
1021 2 0.1875 0.270833 0.0741667
1026 2 0.3125 0.229167 0.0741667
1874 1 0.333333 0.25 0.0593333
1885 2 0.354167 0.270833 0.0741667
1890 2 0.479167 0.229167 0.0741667
2738 1 0.5 0.25 0.0593333
2749 2 0.520833 0.270833 0.0741667
2754 2 0.645833 0.229167 0.0741667
3602 1 0.666667 0.25 0.0593333
3613 2 0.6875 0.270833 0.0741667
3618 2 0.8125 0.229167 0.0741667
4466 1 0.833333 0.25 0.0593333
4477 2 0.854167 0.270833 0.0741667
4482 2 0.979167 0.229167 0.0741667
149 1 0.0416667 0.291667 0.089
159 2 0.0625 0.3125 0.0741667
292 1 0.0833333 0.333333 0.0593333
300 2 0.104167 0.354167 0.0741667
1013 1 0.208333 0.291667 0.089
1023 2 0.229167 0.3125 0.0741667
1156 1 0.25 0.333333 0.0593333
1164 2 0.270833 0.354167 0.0741667
1877 1 0.375 0.291667 0.089
1887 2 0.395833 0.3125 0.0741667
2020 1 0.416667 0.333333 0.0593333
2028 2 0.4375 0.354167 0.0741667
2741 1 0.541667 0.291667 0.089
2751 2 0.5625 0.3125 0.0741667
2884 1 0.583333 0.333333 0.0593333
2892 2 0.604167 0.354167 0.0741667
3605 1 0.708333 0.291667 0.089
3615 2 0.729167 0.3125 0.0741667
3748 1 0.75 0.333333 0.0593333
3756 2 0.770833 0.354167 0.0741667
4469 1 0.875 0.291667 0.089
4479 2 0.895833 0.3125 0.0741667
4612 1 0.916667 0.333333 0.0593333
4620 2 0.9375 0.354167 0.0741667
290 1 0 0.416667 0.0593333
296 1 0.125 0.375 0.089
306 2 0.145833 0.395833 0.0741667
1154 1 0.166667 0.416667 0.0593333
1160 1 0.291667 0.375 0.089
1170 2 0.3125 0.395833 0.0741667
2018 1 0.333333 0.416667 0.0593333
2024 1 0.458333 0.375 0.089
2034 2 0.479167 0.395833 0.0741667
2882 1 0.5 0.416667 0.0593333
2888 1 0.625 0.375 0.089
2898 2 0.645833 0.395833 0.0741667
3746 1 0.666667 0.416667 0.0593333
3752 1 0.791667 0.375 0.089
3762 2 0.8125 0.395833 0.0741667
4610 1 0.833333 0.416667 0.0593333
4616 1 0.958333 0.375 0.089
4626 2 0.979167 0.395833 0.0741667
293 1 0.0416667 0.458333 0.089
301 2 0.0208333 0.4375 0.0741667
303 2 0.0625 0.479167 0.0741667
1157 1 0.208333 0.458333 0.089
1165 2 0.1875 0.4375 0.0741667
1167 2 0.229167 0.479167 0.0741667
2029 2 0.354167 0.4375 0.0741667
2021 1 0.375 0.458333 0.089
2031 2 0.395833 0.479167 0.0741667
2885 1 0.541667 0.458333 0.089
2893 2 0.520833 0.4375 0.0741667
2895 2 0.5625 0.479167 0.0741667
3749 1 0.708333 0.458333 0.089
3757 2 0.6875 0.4375 0.0741667
3759 2 0.729167 0.479167 0.0741667
4621 2 0.854167 0.4375 0.0741667
4613 1 0.875 0.458333 0.089
4623 2 0.895833 0.479167 0.0741667
436 1 0.0833333 0.5 0.0593333
440 1 0.125 0.541667 0.089
444 2 0.104167 0.520833 0.0741667
450 2 0.145833 0.5625 0.0741667
1300 1 0.25 0.5 0.0593333
1308 2 0.270833 0.520833 0.0741667
1304 1 0.291667 0.541667 0.089
1314 2 0.3125 0.5625 0.0741667
2164 1 0.416667 0.5 0.0593333
2168 1 0.458333 0.541667 0.089
2172 2 0.4375 0.520833 0.0741667
2178 2 0.479167 0.5625 0.0741667
3028 1 0.583333 0.5 0.0593333
3032 1 0.625 0.541667 0.089
3036 2 0.604167 0.520833 0.0741667
3042 2 0.645833 0.5625 0.0741667
3892 1 0.75 0.5 0.0593333
3900 2 0.770833 0.520833 0.0741667
3896 1 0.791667 0.541667 0.089
3906 2 0.8125 0.5625 0.0741667
4756 1 0.916667 0.5 0.0593333
4760 1 0.958333 0.541667 0.089
4764 2 0.9375 0.520833 0.0741667
4770 2 0.979167 0.5625 0.0741667
434 1 0 0.583333 0.0593333
437 1 0.0416667 0.625 0.089
445 2 0.0208333 0.604167 0.0741667
1298 1 0.166667 0.583333 0.0593333
1301 1 0.208333 0.625 0.089
1309 2 0.1875 0.604167 0.0741667
2162 1 0.333333 0.583333 0.0593333
2173 2 0.354167 0.604167 0.0741667
2165 1 0.375 0.625 0.089
3026 1 0.5 0.583333 0.0593333
3029 1 0.541667 0.625 0.089
3037 2 0.520833 0.604167 0.0741667
3890 1 0.666667 0.583333 0.0593333
3893 1 0.708333 0.625 0.089
3901 2 0.6875 0.604167 0.0741667
4754 1 0.833333 0.583333 0.0593333
4765 2 0.854167 0.604167 0.0741667
4757 1 0.875 0.625 0.089
447 2 0.0625 0.645833 0.0741667
580 1 0.0833333 0.666667 0.0593333
584 1 0.125 0.708333 0.089
588 2 0.104167 0.6875 0.0741667
1311 2 0.229167 0.645833 0.0741667
1444 1 0.25 0.666667 0.0593333
1452 2 0.270833 0.6875 0.0741667
1448 1 0.291667 0.708333 0.089
2175 2 0.395833 0.645833 0.0741667
2308 1 0.416667 0.666667 0.0593333
2312 1 0.458333 0.708333 0.089
2316 2 0.4375 0.6875 0.0741667
3039 2 0.5625 0.645833 0.0741667
3172 1 0.583333 0.666667 0.0593333
3176 1 0.625 0.708333 0.089
3180 2 0.604167 0.6875 0.0741667
3903 2 0.729167 0.645833 0.0741667
4036 1 0.75 0.666667 0.0593333
4044 2 0.770833 0.6875 0.0741667
4040 1 0.791667 0.708333 0.089
4767 2 0.895833 0.645833 0.0741667
4900 1 0.916667 0.666667 0.0593333
4904 1 0.958333 0.708333 0.089
4908 2 0.9375 0.6875 0.0741667
578 1 0 0.75 0.0593333
589 2 0.0208333 0.770833 0.0741667
594 2 0.145833 0.729167 0.0741667
1442 1 0.166667 0.75 0.0593333
1453 2 0.1875 0.770833 0.0741667
1458 2 0.3125 0.729167 0.0741667
2306 1 0.333333 0.75 0.0593333
2317 2 0.354167 0.770833 0.0741667
2322 2 0.479167 0.729167 0.0741667
3170 1 0.5 0.75 0.0593333
3181 2 0.520833 0.770833 0.0741667
3186 2 0.645833 0.729167 0.0741667
4034 1 0.666667 0.75 0.0593333
4045 2 0.6875 0.770833 0.0741667
4050 2 0.8125 0.729167 0.0741667
4898 1 0.833333 0.75 0.0593333
4909 2 0.854167 0.770833 0.0741667
4914 2 0.979167 0.729167 0.0741667
581 1 0.0416667 0.791667 0.089
591 2 0.0625 0.8125 0.0741667
724 1 0.0833333 0.833333 0.0593333
732 2 0.104167 0.854167 0.0741667
1445 1 0.208333 0.791667 0.089
1455 2 0.229167 0.8125 0.0741667
1588 1 0.25 0.833333 0.0593333
1596 2 0.270833 0.854167 0.0741667
2309 1 0.375 0.791667 0.089
2319 2 0.395833 0.8125 0.0741667
2452 1 0.416667 0.833333 0.0593333
2460 2 0.4375 0.854167 0.0741667
3173 1 0.541667 0.791667 0.089
3183 2 0.5625 0.8125 0.0741667
3316 1 0.583333 0.833333 0.0593333
3324 2 0.604167 0.854167 0.0741667
4037 1 0.708333 0.791667 0.089
4047 2 0.729167 0.8125 0.0741667
4180 1 0.75 0.833333 0.0593333
4188 2 0.770833 0.854167 0.0741667
4901 1 0.875 0.791667 0.089
4911 2 0.895833 0.8125 0.0741667
5044 1 0.916667 0.833333 0.0593333
5052 2 0.9375 0.854167 0.0741667
722 1 0 0.916667 0.0593333
728 1 0.125 0.875 0.089
738 2 0.145833 0.895833 0.0741667
1586 1 0.166667 0.916667 0.0593333
1592 1 0.291667 0.875 0.089
1602 2 0.3125 0.895833 0.0741667
2450 1 0.333333 0.916667 0.0593333
2456 1 0.458333 0.875 0.089
2466 2 0.479167 0.895833 0.0741667
3314 1 0.5 0.916667 0.0593333
3320 1 0.625 0.875 0.089
3330 2 0.645833 0.895833 0.0741667
4178 1 0.666667 0.916667 0.0593333
4184 1 0.791667 0.875 0.089
4194 2 0.8125 0.895833 0.0741667
5042 1 0.833333 0.916667 0.0593333
5048 1 0.958333 0.875 0.089
5058 2 0.979167 0.895833 0.0741667
725 1 0.0416667 0.958333 0.089
733 2 0.0208333 0.9375 0.0741667
735 2 0.0625 0.979167 0.0741667
1589 1 0.208333 0.958333 0.089
1597 2 0.1875 0.9375 0.0741667
1599 2 0.229167 0.979167 0.0741667
2461 2 0.354167 0.9375 0.0741667
2453 1 0.375 0.958333 0.089
2463 2 0.395833 0.979167 0.0741667
3317 1 0.541667 0.958333 0.089
3325 2 0.520833 0.9375 0.0741667
3327 2 0.5625 0.979167 0.0741667
4181 1 0.708333 0.958333 0.089
4189 2 0.6875 0.9375 0.0741667
4191 2 0.729167 0.979167 0.0741667
5053 2 0.854167 0.9375 0.0741667
5045 1 0.875 0.958333 0.089
5055 2 0.895833 0.979167 0.0741667
25 1 0 0 0.118667
33 2 0.0237115 0.0283533 0.13293
35 2 0.0695739 0.0632477 0.139527
17 2 0.104167 0.0625 0.103833
24 2 0.145833 0.0208333 0.103833
889 1 0.166667 0 0.118667
897 2 0.192853 0.0238505 0.131415
881 2 0.270833 0.0625 0.103833
899 2 0.234139 0.0659285 0.139685
888 2 0.3125 0.0208333 0.103833
1753 1 0.333333 0 0.118667
1761 2 0.362977 0.0226551 0.129509
1763 2 0.398272 0.0679761 0.13962
1755 1 0.383391 0.036354 0.149781
1745 2 0.4375 0.0625 0.103833
1752 2 0.479167 0.0208333 0.103833
2617 1 0.5 0 0.118667
2625 2 0.518985 0.0167099 0.138612
2627 2 0.561116 0.0564234 0.130978
2619 1 0.536507 0.0465321 0.149758
2609 2 0.604167 0.0625 0.103833
2616 2 0.645833 0.0208333 0.103833
3481 1 0.666667 0 0.118667
3489 2 0.681323 0.0178092 0.139731
3473 2 0.770833 0.0625 0.103833
3491 2 0.726041 0.0574373 0.132873
3480 2 0.8125 0.0208333 0.103833
4345 1 0.833333 0 0.118667
4353 2 0.848888 0.0172462 0.140484
4355 2 0.891914 0.0567989 0.131312
4337 2 0.9375 0.0625 0.103833
4344 2 0.979167 0.0208333 0.103833
19 2 0.0625 0.104167 0.103833
31 1 0.0833333 0.0833333 0.118667
38 2 0.103081 0.112941 0.132785
883 2 0.229167 0.104167 0.103833
895 1 0.25 0.0833333 0.118667
902 2 0.274685 0.108373 0.132125
1747 2 0.395833 0.104167 0.103833
1759 1 0.416667 0.0833333 0.118667
1766 2 0.444432 0.103274 0.133367
2611 2 0.5625 0.104167 0.103833
2623 1 0.583333 0.0833333 0.118667
2630 2 0.598385 0.101509 0.140458
2639 2 0.643931 0.140585 0.132824
3475 2 0.729167 0.104167 0.103833
3487 1 0.75 0.0833333 0.118667
3494 2 0.768336 0.102184 0.139254
4339 2 0.895833 0.104167 0.103833
4351 1 0.916667 0.0833333 0.118667
4358 2 0.936091 0.0992624 0.139818
20 2 0.0208333 0.145833 0.103833
169 1 0 0.166667 0.118667
177 2 0.0222089 0.18555 0.137371
47 2 0.152272 0.144246 0.138799
168 2 0.145833 0.1875 0.103833
884 2 0.1875 0.145833 0.103833
1033 1 0.166667 0.166667 0.118667
1041 2 0.190455 0.192191 0.13188
911 2 0.31559 0.148826 0.139401
1032 2 0.3125 0.1875 0.103833
1748 2 0.354167 0.145833 0.103833
1897 1 0.333333 0.166667 0.118667
1905 2 0.358878 0.191356 0.131282
1899 1 0.372257 0.21294 0.149843
1775 2 0.481715 0.149464 0.139938
1896 2 0.479167 0.1875 0.103833
2612 2 0.520833 0.145833 0.103833
2761 1 0.5 0.166667 0.118667
2769 2 0.527635 0.188985 0.129922
2763 1 0.538903 0.211539 0.148708
2760 2 0.645833 0.1875 0.103833
3476 2 0.6875 0.145833 0.103833
3625 1 0.666667 0.166667 0.118667
3633 2 0.684849 0.184063 0.1392
3503 2 0.807672 0.144962 0.132732
3624 2 0.8125 0.1875 0.103833
4340 2 0.854167 0.145833 0.103833
4489 1 0.833333 0.166667 0.118667
4497 2 0.851914 0.182291 0.138731
4367 2 0.975476 0.144596 0.132323
4488 2 0.979167 0.1875 0.103833
179 2 0.0656661 0.224099 0.13425
163 2 0.0625 0.270833 0.103833
161 2 0.104167 0.229167 0.103833
175 1 0.0833333 0.25 0.118667
182 2 0.100516 0.268432 0.13981
1025 2 0.270833 0.229167 0.103833
1027 2 0.229167 0.270833 0.103833
1039 1 0.25 0.25 0.118667
1043 2 0.233415 0.235476 0.140192
1046 2 0.275915 0.279139 0.128621
1891 2 0.395833 0.270833 0.103833
1903 1 0.416667 0.25 0.118667
1907 2 0.400493 0.232618 0.139538
1889 2 0.4375 0.229167 0.103833
1910 2 0.443433 0.275599 0.131675
2755 2 0.5625 0.270833 0.103833
2771 2 0.566634 0.234457 0.140791
2753 2 0.604167 0.229167 0.103833
2767 1 0.583333 0.25 0.118667
2774 2 0.607613 0.275007 0.131345
3617 2 0.770833 0.229167 0.103833
3619 2 0.729167 0.270833 0.103833
3631 1 0.75 0.25 0.118667
3635 2 0.725432 0.227945 0.132367
3638 2 0.767714 0.269098 0.13809
4483 2 0.895833 0.270833 0.103833
4495 1 0.916667 0.25 0.118667
4499 2 0.889183 0.225095 0.132308
4481 2 0.9375 0.229167 0.103833
4502 2 0.93119 0.268149 0.139202
164 2 0.0208333 0.3125 0.103833
313 1 0 0.333333 0.118667
321 2 0.0189768 0.34914 0.139115
191 2 0.141752 0.310182 0.132501
312 2 0.145833 0.354167 0.103833
1028 2 0.1875 0.3125 0.103833
1177 1 0.166667 0.333333 0.118667
1185 2 0.187241 0.347542 0.138823
1055 2 0.318856 0.314862 0.139104
1176 2 0.3125 0.354167 0.103833
1892 2 0.354167 0.3125 0.103833
2041 1 0.333333 0.333333 0.118667
1038 1 0.288637 0.29999 0.148604
1919 2 0.484526 0.317919 0.140232
2040 2 0.479167 0.354167 0.103833
2756 2 0.520833 0.3125 0.103833
2905 1 0.5 0.333333 0.118667
2783 2 0.650634 0.315992 0.141188
2904 2 0.645833 0.354167 0.103833
3620 2 0.6875 0.3125 0.103833
3769 1 0.666667 0.333333 0.118667
3777 2 0.694444 0.355153 0.13068
3647 2 0.810746 0.313494 0.134823
3768 2 0.8125 0.354167 0.103833
4484 2 0.854167 0.3125 0.103833
4633 1 0.833333 0.333333 0.118667
4641 2 0.849862 0.350534 0.140171
4511 2 0.972825 0.310254 0.131839
4632 2 0.979167 0.354167 0.103833
323 2 0.0617488 0.390574 0.133496
305 2 0.104167 0.395833 0.103833
319 1 0.0833333 0.416667 0.118667
1169 2 0.270833 0.395833 0.103833
1183 1 0.25 0.416667 0.118667
1187 2 0.224713 0.39158 0.130843
2049 2 0.354175 0.358964 0.132701
2047 1 0.416667 0.416667 0.118667
2051 2 0.398431 0.397724 0.139343
2033 2 0.4375 0.395833 0.103833
2913 2 0.524063 0.358584 0.131586
2915 2 0.566229 0.399466 0.138649
2897 2 0.604167 0.395833 0.103833
2911 1 0.583333 0.416667 0.118667
3761 2 0.770833 0.395833 0.103833
3775 1 0.75 0.416667 0.118667
3779 2 0.730462 0.400744 0.140394
4639 1 0.916667 0.416667 0.118667
4643 2 0.89251 0.391996 0.132114
4625 2 0.9375 0.395833 0.103833
307 2 0.0625 0.4375 0.103833
308 2 0.0208333 0.479167 0.103833
326 2 0.0999907 0.435703 0.139442
335 2 0.140338 0.476912 0.130451
1172 2 0.1875 0.479167 0.103833
1171 2 0.229167 0.4375 0.103833
1190 2 0.269382 0.431883 0.13737
1199 2 0.308677 0.475359 0.132652
2036 2 0.354167 0.479167 0.103833
2035 2 0.395833 0.4375 0.103833
2054 2 0.441047 0.441768 0.13419
2063 2 0.480544 0.484835 0.140808
2899 2 0.5625 0.4375 0.103833
2900 2 0.520833 0.479167 0.103833
2918 2 0.61061 0.439296 0.131416
2927 2 0.647626 0.482281 0.140276
3764 2 0.6875 0.479167 0.103833
3763 2 0.729167 0.4375 0.103833
3782 2 0.775245 0.440711 0.131584
3791 2 0.814798 0.484778 0.141245
4628 2 0.854167 0.479167 0.103833
4627 2 0.895833 0.4375 0.103833
4646 2 0.934917 0.432208 0.140508
4655 2 0.973559 0.473704 0.130215
457 1 0 0.5 0.118667
465 2 0.0165353 0.515494 0.139586
467 2 0.0584619 0.558753 0.13202
449 2 0.104167 0.5625 0.103833
456 2 0.145833 0.520833 0.103833
1321 1 0.166667 0.5 0.118667
1329 2 0.184349 0.518263 0.137839
1313 2 0.270833 0.5625 0.103833
1331 2 0.230047 0.555917 0.132428
1320 2 0.3125 0.520833 0.103833
2185 1 0.333333 0.5 0.118667
2193 2 0.35046 0.520805 0.140181
2195 2 0.393924 0.557909 0.130444
2177 2 0.4375 0.5625 0.103833
2184 2 0.479167 0.520833 0.103833
3049 1 0.5 0.5 0.118667
3057 2 0.525785 0.52375 0.129246
3059 2 0.564879 0.5673 0.139775
3041 2 0.604167 0.5625 0.103833
3048 2 0.645833 0.520833 0.103833
3913 1 0.666667 0.5 0.118667
3921 2 0.692478 0.522534 0.131963
3905 2 0.770833 0.5625 0.103833
3923 2 0.733043 0.566898 0.139817
3912 2 0.8125 0.520833 0.103833
4777 1 0.833333 0.5 0.118667
4785 2 0.858197 0.523664 0.131102
4787 2 0.900417 0.566129 0.138989
4769 2 0.9375 0.5625 0.103833
4776 2 0.979167 0.520833 0.103833
451 2 0.0625 0.604167 0.103833
463 1 0.0833333 0.583333 0.118667
470 2 0.101647 0.598354 0.140205
462 1 0.119847 0.628777 0.149947
479 2 0.143595 0.640641 0.131263
1315 2 0.229167 0.604167 0.103833
1327 1 0.25 0.583333 0.118667
1334 2 0.268445 0.598836 0.139603
1343 2 0.309522 0.642833 0.133537