LAMMPS (17 Nov 2016)
#include "system.in"
#velocity	all create 1 277387 mom yes
#include "system.prepare"

include "system.in.init"
  units         metal
  boundary      p p p
  atom_style    atomic
  pair_style    vashishta
  #pair_modify  mix arithmetic  # LEAVE THIS UNSPECIFIED!
read_restart restartFiles/SiO2_initial_50000.restart
  orthogonal box = (0 0 0) to (327.52 327.52 160.64)
  4 by 8 by 2 MPI processor grid
  655009 atoms
include "system.in.settings"
  pair_coeff  * *  SiO2.vashishta Si O
Reading potential file SiO2.vashishta with DATE: 2015-10-14
  pair_modify table 16
  pair_modify tabinner 0.1






variable N  equal 60000
variable N2 equal 5000
variable T  equal 293
variable compressionLength equal 60

restart 10000 restartFiles/lower/SiO2_lower_*.restart

neighbor	0.3 bin
neigh_modify	delay 10

timestep	0.002

info groups

fix   nvtID excludeBT nvt temp ${T} ${T} 1.0
fix   nvtID excludeBT nvt temp 293 ${T} 1.0
fix   nvtID excludeBT nvt temp 293 293 1.0
Resetting global fix info from restart file:
  fix style: nvt, fix ID: nvtID

print "BALLE"
BALLE

#Move the top z-boundary downwards
fix deform all deform 1 z delta 0 -${compressionLength} remap x
fix deform all deform 1 z delta 0 -60 remap x

print "BALLE"
BALLE
compute chunkID all chunk/atom bin/2d x 0 7.12 y 0 7.12
compute computeID slabG group/group/atom sphereG pair yes
fix fixComputeID slabG ave/chunk 5 1000 ${N2} chunkID c_computeID[2] c_computeID[3] c_computeID[4] file forceFiles/forcesAll.txt #ave running
fix fixComputeID slabG ave/chunk 5 1000 5000 chunkID c_computeID[2] c_computeID[3] c_computeID[4] file forceFiles/forcesAll.txt 

print "BALLE"
BALLE

dump allDumpID all atom ${N2} dumpFiles/lower/SiO2_lower_*.dump
dump allDumpID all atom 5000 dumpFiles/lower/SiO2_lower_*.dump
dump surfaceDumpID  surfaceG  atom ${N2} surfaceFiles/Surface*.dump
dump surfaceDumpID  surfaceG  atom 5000 surfaceFiles/Surface*.dump

print "BALLE"
BALLE
thermo 100
fix balanceID all balance 5000 1.1 shift xyz 50 1.0
print "BALLE"
BALLE
run ${N}
run 60000
All restart file global fix info was re-assigned
Neighbor list info ...
  2 neighbor list requests
  update every 1 steps, delay 10 steps, check yes
  max neighbors/atom: 2000, page size: 100000
  master list distance cutoff = 5.8
  ghost atom cutoff = 5.8
  binsize = 2.9 -> bins = 113 113 56
Memory usage per processor = 11.77 Mbytes
Step Temp E_pair E_mol TotEng Press Volume 
   50000    267.05991   -2215115.4            0   -2192504.4    7538.6012     17231748 
   50100    265.90277   -2215037.6            0   -2192524.6    7485.0249     17221022 
   50200    265.39307   -2214998.2            0   -2192528.3    7481.7426     17210295 
   50300    265.60259   -2215000.3            0   -2192512.7    7552.0624     17199568 
   50400    265.51093   -2214955.1            0   -2192475.3    7606.7214     17188841 
   50500    266.38991   -2214973.5            0   -2192419.2    7732.7653     17178114 
   50600    267.09082   -2214962.3            0   -2192348.7    7915.9223     17167387 
   50700    267.67172   -2214931.5            0   -2192268.6    8041.5707     17156660 
   50800    268.42977   -2214910.6            0   -2192183.6    8296.3503     17145933 
   50900     268.1993   -2214805.8            0   -2192098.3     8500.979     17135206 
   51000    268.89749   -2214781.7            0   -2192015.1    8620.4546     17124479 
   51100    268.83244   -2214694.4            0   -2191933.3    8761.9202     17113752 
   51200    268.78509   -2214612.3            0   -2191855.2    8932.5659     17103025 
   51300    269.55928   -2214605.1            0   -2191782.5     8951.454     17092298 
   51400    269.46537   -2214529.4            0   -2191714.7    8959.3661     17081571 
   51500    269.58341     -2214480            0   -2191655.3    8835.0326     17070844 
   51600    269.90994   -2214458.4            0     -2191606    8847.5073     17060117 
   51700    269.75594     -2214408            0   -2191568.7    8643.5551     17049391 
   51800    269.69682   -2214377.6            0   -2191543.3    8532.8527     17038664 
   51900    269.08859   -2214309.9            0   -2191527.1    8485.0326     17027937 
   52000     268.7787   -2214274.8            0   -2191518.3    8383.3851     17017210 
   52100    267.47214   -2214156.7            0   -2191510.8    8335.6471     17006483 
   52200    267.26624   -2214128.8            0   -2191500.3     8245.714     16995756 
   52300    266.97747   -2214085.6            0   -2191481.6    8396.3011     16985029 
   52400    267.19109   -2214074.7            0   -2191452.6    8453.2903     16974302 
   52500    267.63586   -2214072.6            0   -2191412.8    8596.4367     16963575 
   52600    267.66678   -2214026.1            0   -2191363.7    8833.1592     16952848 
   52700    268.66476   -2214057.1            0   -2191310.2    8937.7904     16942121 
   52800    269.41237   -2214064.6            0   -2191254.4    9191.2636     16931394 
   52900    269.63679   -2214030.2            0     -2191201      9387.26     16920667 
   53000     269.3386     -2213955            0   -2191151.1    9603.4476     16909940 
   53100    270.13429   -2213980.3            0   -2191108.9    9801.9142     16899213 
   53200    269.78691   -2213912.8            0     -2191071    9895.2907     16888487 
   53300    269.40778   -2213850.2            0   -2191040.4    9964.3941     16877760 
   53400     269.2893   -2213814.4            0   -2191014.7    9969.9585     16867033 
   53500    268.99914   -2213768.8            0   -2190993.6    9978.3503     16856306 
   53600    268.69373   -2213726.6            0   -2190977.2    9880.5166     16845579 
   53700    268.49361   -2213697.3            0   -2190964.9    9711.1301     16834852 
   53800    268.37127   -2213678.9            0   -2190956.8    9557.8154     16824125 
   53900    268.05062   -2213644.8            0   -2190949.9     9402.202     16813398 
   54000    267.45245   -2213585.4            0   -2190941.2    9216.5453     16802671 
   54100    266.59003   -2213497.1            0   -2190925.9    9083.3196     16791944 
   54200    266.11751   -2213430.5            0   -2190899.3    9066.0197     16781217 
   54300     265.6683   -2213349.7            0   -2190856.5    9017.6247     16770490 
   54400    265.54899   -2213277.6            0   -2190794.5    9062.0458     16759763 
   54500    265.66975   -2213206.1            0   -2190712.8    9186.7353     16749036 
   54600    266.28829   -2213161.9            0   -2190616.2     9370.631     16738309 
   54700    267.72642   -2213178.8            0   -2190511.4    9570.2155     16727583 
   54800    268.21397   -2213111.3            0   -2190402.5    9830.3547     16716856 
   54900    269.01817   -2213072.8            0   -2190295.9     10007.99     16706129 
   55000    269.68153   -2213027.9            0   -2190194.9    10268.785     16695402 
   55100    270.10383   -2212970.9            0   -2190102.1    10550.316     16684675 
   55200    270.59677     -2212929            0   -2190018.5    10777.697     16673948 
   55300    270.23741   -2212825.4            0   -2189945.3    10962.385     16663221 
   55400    270.60516   -2212794.8            0   -2189883.6    11052.187     16652494 
   55500     269.9835   -2212691.8            0   -2189833.3    11107.358     16641767 
   55600    270.28923   -2212680.4            0   -2189795.9    11098.101     16631040 
   55700    270.68542   -2212690.8            0   -2189772.8    11050.946     16620313 
   55800     270.0428   -2212625.7            0   -2189762.2    10931.035     16609586 
   55900    269.69783   -2212598.9            0   -2189764.6    10764.974     16598859 
   56000    269.13252   -2212561.2            0   -2189774.7    10603.215     16588132 
   56100    268.18646   -2212495.4            0   -2189789.1    10412.735     16577405 
   56200    267.41293   -2212442.6            0   -2189801.7    10344.453     16566678 
   56300    266.45213   -2212366.5            0   -2189806.9    10248.482     16555952 
   56400    266.46645   -2212360.8            0   -2189800.1    10133.469     16545225 
   56500    265.74961   -2212275.6            0   -2189775.5    10192.915     16534498 
   56600     265.1593   -2212180.8            0   -2189730.7    10169.278     16523771 
   56700    265.49078   -2212144.2            0     -2189666    10429.701     16513044 
   56800    266.45755   -2212143.6            0   -2189583.6    10393.828     16502317 
   56900    266.85518   -2212081.3            0   -2189487.6    10651.207     16491590 
   57000    267.90221     -2212066            0   -2189383.7    10894.552     16480863 
   57100    268.47962   -2212006.8            0   -2189275.6    11090.978     16470136 
   57200    268.60819   -2211910.5            0   -2189168.4     11447.64     16459409 
   57300    269.03191   -2211841.4            0   -2189063.5    11591.881     16448682 
   57400    269.32416     -2211765            0   -2188962.3    11790.374     16437955 
   57500    269.50214   -2211684.6            0   -2188866.8     11946.29     16427228 
   57600    269.92698   -2211631.7            0     -2188778    12013.995     16416501 
   57700    269.96753   -2211554.9            0   -2188697.7    12018.013     16405774 
   57800    270.24427   -2211509.5            0   -2188628.9    12041.847     16395048 
   57900    270.58911   -2211482.7            0   -2188572.9    11883.566     16384321 
   58000    270.49329   -2211433.1            0   -2188531.4    11798.303     16373594 
   58100    269.89306   -2211353.6            0   -2188502.8    11757.819     16362867 
   58200     269.3815   -2211292.6            0   -2188485.1    11571.383     16352140 
   58300    268.12859   -2211174.6            0   -2188473.1    11500.239     16341413 
   58400    267.88583   -2211142.7            0   -2188461.8    11431.692     16330686 
   58500    267.32956   -2211078.7            0   -2188444.8    11437.416     16319959 
   58600    266.66769   -2210996.2            0   -2188418.4    11409.423     16309232 
   58700    266.80852   -2210970.8            0     -2188381    11503.469     16298505 
   58800    267.04195   -2210940.8            0   -2188331.3    11566.001     16287778 
   58900     267.6955   -2210935.2            0   -2188270.4    11787.515     16277051 
   59000      267.668   -2210862.8            0   -2188200.3    12039.501     16266324 
   59100    268.19228   -2210832.4            0   -2188125.5    12179.096     16255597 
   59200    268.63734   -2210791.5            0   -2188046.9    12490.123     16244870 
   59300    268.51084   -2210700.9            0     -2187967    12539.729     16234143 
   59400    268.22464     -2210597            0   -2187887.4     12782.92     16223417 
   59500    268.56847   -2210546.9            0   -2187808.1    12899.362     16212690 
   59600    268.36192   -2210449.8            0   -2187728.6    12940.581     16201963 
   59700    268.65923     -2210397            0   -2187650.6    13042.752     16191236 
   59800    268.87284     -2210339            0   -2187574.5    12997.862     16180509 
   59900    268.83527   -2210263.7            0   -2187502.4    12984.737     16169782 
   60000    269.02046   -2210212.6            0   -2187435.6    12823.713     16159055 
   60100    269.18074   -2210165.9            0   -2187375.4    12778.294     16148328 
   60200    269.31067   -2210122.1            0   -2187320.5    12609.082     16137601 
   60300    268.29839   -2209984.6            0   -2187268.8    12477.699     16126874 
   60400    267.72244   -2209885.8            0   -2187218.7    12397.437     16116147 
   60500    267.29966   -2209796.5            0   -2187165.2    12443.316     16105420 
   60600    267.42722   -2209746.2            0   -2187104.1    12380.548     16094693 
   60700    267.09382   -2209647.2            0   -2187033.3     12510.15     16083966 
   60800    266.85673   -2209545.5            0   -2186951.7     12655.83     16073239 
   60900    267.43579   -2209504.2            0   -2186861.4    12856.701     16062513 
   61000       268.31   -2209482.5            0   -2186765.6    13061.206     16051786 
   61100    268.73494   -2209419.5            0   -2186666.7    13321.786     16041059 
   61200    269.68556   -2209402.6            0   -2186569.3    13527.326     16030332 
   61300    269.50942   -2209293.4            0     -2186475    13774.836     16019605 
   61400     270.1771   -2209263.4            0   -2186388.5    13929.696     16008878 
   61500    269.99987   -2209167.7            0   -2186307.7    14151.162     15998151 
   61600     270.0083   -2209096.4            0   -2186235.7    14314.774     15987424 
   61700    269.89182     -2209023            0   -2186172.2    14324.229     15976697 
   61800    269.72597   -2208953.4            0   -2186116.6    14375.525     15965970 
   61900    269.62858   -2208898.8            0   -2186070.4    14302.519     15955243 
   62000    269.87051   -2208882.3            0   -2186033.3    14330.769     15944516 
   62100    269.47293   -2208819.3            0     -2186004    14099.469     15933789 
   62200    268.96282   -2208752.8            0   -2185980.7    14062.222     15923062 
   62300    268.01644   -2208652.9            0   -2185960.9    13882.246     15912335 
   62400    267.58699   -2208596.4            0   -2185940.8    13751.522     15901609 
   62500    266.73424   -2208498.2            0   -2185914.8    13647.744     15890882 
   62600    266.22757   -2208419.3            0   -2185878.8    13533.071     15880155 
   62700    265.49537     -2208305            0   -2185826.4    13549.858     15869428 
   62800    265.08279   -2208200.1            0   -2185756.5    13610.802     15858701 
   62900    265.48736   -2208144.4            0   -2185666.5    13773.111     15847974 
   63000    266.38926   -2208113.4            0   -2185559.1    13926.557     15837247 
   63100    266.94398     -2208039            0   -2185437.8    14059.198     15826520 
   63200    267.34228   -2207943.3            0   -2185308.4    14377.972     15815793 
   63300    268.28314   -2207891.3            0   -2185176.7    14606.565     15805066 
   63400    268.38945   -2207769.5            0   -2185045.9    14853.615     15794339 
   63500    268.94825   -2207690.1            0   -2184919.2    15178.978     15783612 
   63600    269.27336   -2207595.3            0   -2184796.9     15368.88     15772885 
   63700    269.47599   -2207496.2            0   -2184680.7    15589.607     15762158 
   63800    270.34918   -2207462.4            0   -2184572.9    15637.894     15751431 
   63900    270.06847   -2207339.8            0   -2184474.1    15681.762     15740704 
   64000    270.03014   -2207249.1            0   -2184386.6    15684.741     15729978 
   64100    270.23416   -2207191.9            0   -2184312.2    15718.208     15719251 
   64200    270.43196   -2207147.9            0   -2184251.4    15566.647     15708524 
   64300    270.39386   -2207097.7            0   -2184204.4    15486.393     15697797 
   64400    269.77958   -2207009.9            0   -2184168.6    15424.102     15687070 
   64500    268.55304     -2206877            0   -2184139.5    15196.442     15676343 
   64600      268.101   -2206812.4            0   -2184113.3    15159.039     15665616 
   64700    267.54034   -2206735.6            0   -2184083.9    15095.345     15654889 
   64800    266.98471   -2206651.2            0   -2184046.5    15040.728     15644162 
   64900    266.22023   -2206537.5            0   -2183997.5    15081.614     15633435 
   65000    266.24329   -2206477.5            0   -2183935.6    15104.111     15622708 
   65100    266.52659   -2206424.3            0   -2183858.4    15265.711     15611981 
   65200    266.65789   -2206343.6            0   -2183766.6     15491.68     15601254 
   65300    267.11631   -2206278.4            0   -2183662.6    15698.969     15590527 
   65400    267.42003   -2206191.5            0   -2183550.1    15900.747     15579800 
   65500    268.02361   -2206123.7            0   -2183431.1    16139.048     15569074 
   65600    268.19987   -2206017.1            0   -2183309.6     16357.18     15558347 
   65700    268.77857   -2205942.2            0   -2183185.7    16587.682     15547620 
   65800    268.67503   -2205810.1            0   -2183062.3    16716.342     15536893 
   65900    268.62023     -2205683            0   -2182939.9    16851.133     15526166 
   66000    269.57644   -2205646.5            0   -2182822.5     16902.06     15515439 
   66100    269.81749   -2205555.3            0   -2182710.9    16946.473     15504712 
   66200    269.89782   -2205458.6            0   -2182607.3    16857.296     15493985 
   66300    270.14563     -2205387            0   -2182514.7    16861.316     15483258 
   66400     269.9795   -2205290.5            0   -2182432.3    16804.309     15472531 
   66500    269.54157   -2205181.6            0   -2182360.5    16630.508     15461804 
   66600    269.04089   -2205076.5            0   -2182297.7    16655.976     15451077 
   66700    268.43438   -2204966.1            0   -2182238.7    16633.445     15440350 
   66800    268.17923   -2204886.7            0     -2182181    16531.313     15429623 
   66900     267.6918     -2204784            0   -2182119.5    16656.146     15418896 
   67000    267.15846   -2204670.6            0   -2182051.3     16715.67     15408169 
   67100    267.47791     -2204621            0   -2181974.6     16754.69     15397443 
   67200    267.45839   -2204533.7            0     -2181889    16971.885     15386716 
   67300    267.86251   -2204475.3            0   -2181796.3    17036.858     15375989 
   67400    268.54371   -2204433.8            0   -2181697.2    17343.572     15365262 
   67500    268.48103   -2204325.7            0   -2181594.3    17513.788     15354535 
   67600    268.68668     -2204238            0   -2181489.3    17777.166     15343808 
   67700    268.88447   -2204149.2            0   -2181383.7    18017.284     15333081 
   67800    268.97782     -2204052            0   -2181278.6    18061.863     15322354 
   67900     268.6635   -2203921.8            0     -2181175    18274.799     15311627 
   68000    268.82893   -2203834.4            0   -2181073.6    18350.564     15300900 
   68100    268.87016   -2203738.6            0   -2180974.4    18334.958     15290173 
   68200    269.39894   -2203688.5            0   -2180879.5    18425.056     15279446 
   68300    269.36054     -2203595            0   -2180789.2    18301.614     15268719 
   68400    269.33538   -2203508.5            0   -2180704.9    18243.761     15257992 
   68500    268.89479   -2203391.8            0   -2180625.4    18153.595     15247265 
   68600    269.11598   -2203336.6            0   -2180551.5    18011.369     15236539 
   68700    268.10151   -2203178.7            0   -2180479.5    17965.374     15225812 
   68800    267.66171   -2203069.5            0   -2180407.5    17941.858     15215085 
   68900    267.03393   -2202939.5            0   -2180330.7    17946.243     15204358 
   69000    266.81842   -2202836.6            0     -2180246      18002.6     15193631 
   69100    266.77545   -2202737.5            0   -2180150.6    18002.699     15182904 
   69200    266.92822   -2202642.9            0     -2180043    18154.561     15172177 
   69300    267.52803   -2202575.4            0   -2179924.7    18305.411     15161450 
   69400    267.73939   -2202466.6            0   -2179798.1    18577.837     15150723 
   69500    268.16556   -2202370.8            0   -2179666.2    18688.454     15139996 
   69600    268.66902   -2202280.1            0   -2179532.8    18969.495     15129269 
   69700    268.98767   -2202174.6            0   -2179400.3    19262.891     15118542 
   69800    269.12584   -2202057.1            0   -2179271.1    19444.945     15107815 
   69900    269.56106   -2201970.1            0   -2179147.4    19645.581     15097088 
   70000    269.37056   -2201836.2            0   -2179029.5    19731.922     15086361 
   70100    269.73158   -2201756.5            0   -2178919.3    19903.233     15075635 
   70200    270.00837     -2201678            0   -2178817.4    19959.579     15064908 
   70300    269.95428   -2201581.8            0   -2178725.8    19954.841     15054181 
   70400    270.10322   -2201513.1            0   -2178644.4    19921.421     15043454 
   70500    269.66265   -2201404.9            0   -2178573.6    19936.928     15032727 
   70600    269.19201   -2201303.4            0   -2178511.9    19733.119     15022000 
   70700    269.20328   -2201250.3            0   -2178457.8    19677.346     15011273 
   70800    267.83187     -2201082            0   -2178405.6    19684.684     15000546 
   70900    267.57263   -2201007.7            0   -2178353.3    19584.274     14989819 
   71000    267.09763   -2200909.4            0   -2178295.2    19514.394     14979092 
   71100    266.61381   -2200801.5            0   -2178228.3    19631.194     14968365 
   71200    266.53414   -2200715.1            0   -2178148.6     19646.64     14957638 
   71300    266.04325   -2200579.6            0   -2178054.6    19748.681     14946911 
   71400    267.11602   -2200562.6            0   -2177946.8    19919.419     14936184 
   71500    266.93969   -2200424.9            0   -2177824.1    20147.805     14925457 
   71600    267.27475     -2200320            0   -2177690.8    20310.189     14914730 
   71700    268.23686   -2200260.6            0   -2177549.9    20531.881     14904004 
   71800    268.26606   -2200115.8            0   -2177402.7    20816.944     14893277 
   71900    268.75023     -2200008            0   -2177253.8     21031.48     14882550 
   72000    268.57023     -2199844            0   -2177105.1    21275.209     14871823 
   72100     269.2467   -2199755.8            0   -2176959.7    21423.837     14861096 
   72200    269.61099   -2199645.7            0   -2176818.7    21648.634     14850369 
   72300    269.88329   -2199533.7            0   -2176683.7    21676.251     14839642 
   72400    270.00711   -2199418.6            0   -2176558.1    21676.754     14828915 
   72500    269.76882   -2199283.3            0   -2176442.9    21754.859     14818188 
   72600    269.73999   -2199177.6            0   -2176339.6    21704.922     14807461 
   72700    269.65151   -2199078.4            0     -2176248    21642.776     14796734 
   72800    269.09473   -2198950.4            0   -2176167.1    21604.788     14786007 
   72900    268.69718   -2198843.1            0   -2176093.5    21563.239     14775280 
   73000    268.02276   -2198714.8            0   -2176022.3    21498.635     14764553 
   73100    268.07362   -2198647.9            0     -2175951    21501.358     14753826 
   73200    267.56154   -2198528.2            0   -2175874.7    21469.381     14743100 
   73300    267.16446   -2198411.2            0   -2175791.4    21516.837     14732373 
   73400    267.17194   -2198319.9            0   -2175699.4     21640.82     14721646 
   73500    267.15745   -2198216.1            0   -2175596.9    21707.331     14710919 
   73600    267.40764   -2198124.6            0   -2175484.1    21895.769     14700192 
   73700    267.73527   -2198029.2            0     -2175361    22123.081     14689465 
   73800    267.78085   -2197902.6            0   -2175230.5    22415.601     14678738 
   73900    268.35572   -2197813.8            0     -2175093    22657.811     14668011 
   74000    268.96037     -2197725            0     -2174953    22934.576     14657284 
   74100    268.48463   -2197542.2            0   -2174810.6    23091.378     14646557 
   74200    268.88711   -2197434.8            0     -2174669     23392.75     14635830 
   74300    268.99834   -2197304.7            0   -2174529.6    23559.928     14625103 
   74400    269.24429   -2197189.6            0   -2174393.7    23658.923     14614376 
   74500    269.75555   -2197102.7            0   -2174263.5    23648.208     14603649 
   74600    269.57037   -2196963.6            0     -2174140    23720.218     14592922 
   74700    269.60845   -2196851.1            0   -2174024.3     23678.54     14582195 
   74800     269.4448   -2196729.7            0   -2173916.7     23679.72     14571469 
   74900    268.84313   -2196578.4            0   -2173816.4    23604.872     14560742 
   75000    268.29134   -2196436.3            0     -2173721    23537.216     14550015 
   75100     268.1715   -2196332.7            0   -2173627.6    23568.507     14539288 
   75200    267.54957   -2196184.5            0     -2173532    23491.569     14528561 
   75300      267.168   -2196051.1            0     -2173431    23587.535     14517834 
   75400    267.15272     -2195941            0   -2173322.1    23669.142     14507107 
   75500    267.16748   -2195822.9            0   -2173202.8     23781.42     14496380 
   75600     266.9269   -2195672.4            0   -2173072.6    23999.724     14485653 
   75700    267.36117   -2195569.6            0   -2172933.1    24147.418     14474926 
   75800    267.50267   -2195433.1            0   -2172784.6     24385.78     14464199 
   75900    268.34495   -2195350.7            0   -2172630.9    24698.675     14453472 
   76000    269.13827   -2195261.8            0   -2172474.8    24939.941     14442745 
   76100     269.2671   -2195115.8            0   -2172317.9    25250.102     14432018 
   76200    269.36801   -2194969.9            0   -2172163.4    25393.849     14421291 
   76300    269.39076   -2194821.5            0   -2172013.1      25615.2     14410565 
   76400    269.87036   -2194717.7            0   -2171868.7     25856.71     14399838 
   76500    269.90692   -2194582.6            0   -2171730.5    25871.133     14389111 
   76600    270.02327   -2194463.3            0   -2171601.3    25962.218     14378384 
   76700    269.86963   -2194329.5            0   -2171480.6     25879.36     14367657 
   76800    269.55671   -2194191.1            0   -2171368.7    25892.269     14356930 
   76900    269.44128   -2194077.1            0   -2171264.5    25809.257     14346203 
   77000    268.73867   -2193919.3            0   -2171166.2    25787.639     14335476 
   77100    268.15582   -2193774.4            0   -2171070.6    25809.741     14324749 
   77200    267.64877   -2193634.6            0   -2170973.8     25709.95     14314022 
   77300    267.20553     -2193496            0   -2170872.7     25786.85     14303295 
   77400    267.07312   -2193375.8            0   -2170763.7    25824.702     14292568 
   77500    266.61444   -2193216.4            0   -2170643.2    25927.482     14281841 
   77600    267.07593   -2193123.5            0   -2170511.1    26100.059     14271114 
   77700    266.77438   -2192951.3            0   -2170364.4    26325.189     14260387 
   77800     267.6264   -2192865.6            0   -2170206.6    26531.393     14249661 
   77900    267.77467   -2192710.8            0   -2170039.3    26877.261     14238934 
   78000     268.2388   -2192575.9            0     -2169865    27100.414     14228207 
   78100    268.66442   -2192434.8            0     -2169688    27407.526     14217480 
   78200    269.38732   -2192318.9            0   -2169510.8    27579.879     14206753 
   78300    269.17349   -2192125.6            0   -2169335.6    27909.639     14196026 
   78400    269.42346   -2191975.7            0   -2169164.6    28050.403     14185299 
   78500    269.65865     -2191831            0     -2169000    28203.775     14174572 
   78600    270.11978   -2191713.4            0   -2168843.3    28328.135     14163845 
   78700    269.82787   -2191540.6            0   -2168695.2    28308.965     14153118 
   78800    269.78888   -2191399.7            0   -2168557.6    28250.486     14142391 
   78900    269.73495   -2191267.3            0   -2168429.8     28268.98     14131664 
   79000    269.23177   -2191105.6            0   -2168310.7    28221.786     14120937 
   79100    268.97558   -2190970.9            0   -2168197.7    28185.312     14110210 
   79200    268.49638   -2190821.3            0   -2168088.7    28118.801     14099483 
   79300    268.05984   -2190674.6            0   -2167978.9    28054.237     14088756 
   79400    267.13344   -2190482.1            0   -2167864.8    28091.259     14078030 
   79500     266.9404   -2190344.5            0   -2167743.6    28182.039     14067303 
   79600    266.63777   -2190187.7            0   -2167612.4    28379.925     14056576 
   79700    267.10864   -2190085.5            0   -2167470.4    28577.934     14045849 
   79800    266.98778   -2189920.1            0   -2167315.2    28793.305     14035122 
   79900    267.69049   -2189814.6            0   -2167150.2    29040.063     14024395 
   80000    267.97022   -2189663.9            0   -2166975.8    29350.288     14013668 
   80100    268.07771   -2189492.3            0   -2166795.1    29608.863     14002941 
   80200      268.515   -2189346.1            0   -2166611.9     29925.88     13992214 
   80300    268.99896   -2189202.4            0   -2166427.2    30143.931     13981487 
   80400    269.45503   -2189058.2            0   -2166244.4    30416.929     13970760 
   80500    269.51826   -2188883.9            0   -2166064.7    30655.642     13960033 
   80600    269.32034     -2188693            0   -2165890.6    30803.903     13949306 
   80700     269.8072   -2188567.2            0   -2165723.6    30860.298     13938579 
   80800    269.34012   -2188368.4            0   -2165564.3    30924.898     13927852 
   80900    269.92994   -2188268.1            0   -2165414.1    31017.247     13917126 
   81000     269.2576   -2188069.8            0   -2165272.7    30960.885     13906399 
   81100    269.33826   -2187942.6            0   -2165138.7    30896.655     13895672 
   81200    268.73739   -2187762.9            0   -2165009.8    30860.791     13884945 
   81300    268.20552   -2187591.1            0   -2164883.1    30870.089     13874218 
   81400    267.79698   -2187428.7            0   -2164755.3    30911.335     13863491 
   81500    267.32678   -2187256.8            0   -2164623.2    30952.222     13852764 
   81600    267.16137   -2187103.1            0   -2164483.5    31072.286     13842037 
   81700    267.14632   -2186953.5            0   -2164335.1    31213.351     13831310 
   81800    267.20417   -2186798.6            0   -2164175.4    31314.825     13820583 
   81900    267.47891   -2186651.3            0   -2164004.8    31647.701     13809856 
   82000    267.78858   -2186496.8            0   -2163824.1    31928.135     13799129 
   82100    267.79135   -2186307.7            0   -2163634.8    32197.266     13788402 
   82200    268.50573     -2186174            0   -2163440.5    32420.818     13777675 
   82300    268.76784   -2185997.5            0   -2163241.9    32729.863     13766948 
   82400    268.54689   -2185779.2            0   -2163042.3    33006.111     13756221 
   82500     269.3301   -2185648.5            0   -2162845.3    33261.815     13745495 
   82600     269.9155   -2185503.7            0   -2162650.9    33443.988     13734768 
   82700    269.62361     -2185289            0     -2162461    33589.438     13724041 
   82800    269.68325   -2185111.1            0     -2162278     33790.97     13713314 
   82900    269.23673   -2184898.2            0   -2162102.9    33744.464     13702587 
   83000    269.57227   -2184759.9            0   -2161936.2    33749.423     13691860 
   83100     269.0112   -2184552.7            0   -2161776.5    33783.786     13681133 
   83200    268.93186   -2184392.9            0   -2161623.4    33827.562     13670406 
   83300    268.65044   -2184220.2            0   -2161474.5    33833.816     13659679 
   83400    268.74582     -2184081            0   -2161327.3    33863.924     13648952 
   83500    267.77951   -2183848.8            0   -2161176.9    33998.177     13638225 
   83600    267.27843   -2183652.3            0   -2161022.8    34070.443     13627498 
   83700    267.35187   -2183497.3            0   -2160861.6    34190.557     13616771 
   83800    267.09535   -2183306.1            0   -2160692.1    34382.562     13606044 
   83900    267.52696   -2183163.4            0   -2160512.8    34588.812     13595317 
   84000    267.21812   -2182947.6            0   -2160323.2    34762.385     13584591 
   84100    267.62954   -2182783.8            0   -2160124.6    35108.862     13573864 
   84200    268.27302   -2182632.9            0   -2159919.2     35427.64     13563137 
   84300    268.45943   -2182437.2            0   -2159707.7    35665.006     13552410 
   84400    268.78718     -2182251            0   -2159493.7    35950.202     13541683 
   84500     268.7562   -2182032.5            0   -2159277.9    36144.136     13530956 
   84600    268.98254   -2181837.3            0   -2159063.5    36376.495     13520229 
   84700    269.35266   -2181657.3            0   -2158852.2    36586.269     13509502 
   84800     269.0508   -2181423.6            0     -2158644    36616.265     13498775 
   84900    269.24552   -2181237.6            0   -2158441.5    36739.547     13488048 
   85000    269.57684   -2181069.5            0   -2158245.4    36820.578     13477321 
   85100    269.36172     -2180861            0   -2158055.1    36810.333     13466594 
   85200    268.80022   -2180629.1            0   -2157870.7    36917.002     13455867 
   85300    269.15237   -2180481.3            0   -2157693.2    36892.404     13445140 
   85400    268.88501   -2180284.6            0     -2157519    37046.714     13434413 
   85500    268.13671     -2180048            0   -2157345.8    37085.049     13423687 
   85600    268.03533   -2179866.5            0   -2157172.9    37124.206     13412960 
   85700    268.05504     -2179693            0   -2156997.8    37294.066     13402233 
   85800    267.51519   -2179467.5            0   -2156817.9    37452.262     13391506 
   85900    267.80614   -2179307.6            0   -2156633.4    37577.345     13380779 
   86000    267.69274   -2179107.6            0     -2156443    37846.479     13370052 
   86100    267.97855   -2178935.4            0   -2156246.6    38095.034     13359325 
   86200    267.79719   -2178717.6            0   -2156044.2    38306.019     13348598 
   86300    268.14633   -2178540.3            0   -2155837.3    38595.335     13337871 
   86400    267.94931   -2178312.3            0     -2155626    38873.899     13327144 
   86500    268.53826   -2178149.8            0   -2155413.6    39163.965     13316417 
   86600    268.75136   -2177954.5            0   -2155200.3    39374.908     13305690 
   86700    269.00084   -2177763.4            0     -2154988    39540.594     13294963 
   86800    268.92494   -2177546.6            0   -2154777.6    39714.579     13284236 
   86900    268.75713   -2177324.5            0   -2154569.8    39926.953     13273509 
   87000    269.53809   -2177186.6            0   -2154365.8    40061.089     13262782 
   87100    268.89108   -2176929.7            0   -2154163.7    40147.453     13252056 
   87200    268.83729   -2176726.8            0   -2153965.3    40296.565     13241329 
   87300     268.6122   -2176512.1            0   -2153769.6     40345.64     13230602 
   87400    268.78196   -2176332.9            0   -2153576.1     40469.38     13219875 
   87500    268.22957   -2176092.7            0   -2153382.6    40548.073     13209148 
   87600    268.16331     -2175892            0   -2153187.6    40614.815     13198421 
   87700    267.64778   -2175651.2            0   -2152990.4    40734.834     13187694 
   87800    267.85481   -2175467.5            0   -2152789.2    40889.343     13176967 
   87900    267.74412     -2175250            0     -2152581    41126.279     13166240 
   88000    267.98107     -2175056            0     -2152367    41377.845     13155513 
   88100    267.46709   -2174790.9            0   -2152145.4    41538.384     13144786 
   88200    267.70185   -2174582.2            0   -2151916.8    41850.529     13134059 
   88300    268.15478   -2174386.1            0   -2151682.4    42096.492     13123332 
   88400    268.42817   -2174168.9            0     -2151442    42315.683     13112605 
   88500     268.4967   -2173930.1            0   -2151197.4    42590.771     13101878 
   88600    268.46062   -2173681.3            0   -2150951.7    42794.879     13091152 
   88700    269.09411   -2173488.3            0   -2150705.1    43000.279     13080425 
   88800    268.85481   -2173222.1            0   -2150459.1    43323.492     13069698 
   88900      269.029   -2172993.6            0   -2150215.9    43523.218     13058971 
   89000    268.72348   -2172726.1            0   -2149974.3    43609.675     13048244 
   89100    269.14996   -2172525.5            0   -2149737.5    43850.452     13037517 
   89200    269.40235   -2172313.5            0   -2149504.2    43934.447     13026790 
   89300    268.96594   -2172047.1            0   -2149274.8    44027.317     13016063 
   89400    268.87689   -2171814.9            0     -2149050    44222.423     13005336 
   89500    268.80355   -2171587.4            0   -2148828.8    44289.361     12994609 
   89600     268.9457   -2171380.6            0   -2148609.9    44334.841     12983882 
   89700    268.44227   -2171119.6            0   -2148391.5    44492.536     12973155 
   89800    268.38691   -2170896.7            0   -2148173.3     44662.57     12962428 
   89900    268.40408   -2170678.6            0   -2147953.8    44902.757     12951701 
   90000    268.41303   -2170457.8            0   -2147732.3    45096.356     12940974 
   90100    268.01381   -2170198.7            0     -2147507    45257.982     12930247 
   90200    267.78699     -2169950            0   -2147277.4    45495.351     12919521 
   90300    268.60496   -2169785.1            0   -2147043.3    45740.705     12908794 
   90400    267.67716   -2169466.8            0   -2146803.5     45995.16     12898067 
   90500    267.88616   -2169240.7            0   -2146559.8    46221.518     12887340 
   90600    268.39879   -2169035.8            0   -2146311.4     46482.89     12876613 
   90700    268.11223   -2168758.9            0   -2146058.8    46768.322     12865886 
   90800    268.39714   -2168528.3            0     -2145804    47008.824     12855159 
   90900    268.68045     -2168296            0   -2145547.8     47204.71     12844432 
   91000    268.36332   -2168010.4            0     -2145289    47442.202     12833705 
   91100    269.20518   -2167824.4            0   -2145031.8    47642.883     12822978 
   91200    268.79145   -2167531.9            0   -2144774.2    47755.461     12812251 
   91300    268.71107     -2167269            0   -2144518.2    48019.547     12801524 
   91400    268.75088   -2167017.3            0   -2144263.1    48161.023     12790797 
   91500    268.91687   -2166777.2            0     -2144009    48394.478     12780070 
   91600    268.40663   -2166480.3            0   -2143755.3    48537.708     12769343 
   91700    268.56324   -2166240.4            0   -2143502.1    48505.556     12758617 
   91800    268.31249   -2165965.9            0   -2143248.9    48735.099     12747890 
   91900    268.48267   -2165726.7            0   -2142995.2    48932.419     12737163 
   92000    268.05584   -2165434.8            0   -2142739.4    49092.757     12726436 
   92100    268.07744   -2165178.6            0   -2142481.5    49318.423     12715709 
   92200    267.90866   -2164903.3            0   -2142220.4     49528.51     12704982 
   92300    268.77648   -2164712.8            0   -2141956.4    49723.509     12694255 
   92400    268.21568   -2164396.7            0   -2141687.8    49975.132     12683528 
   92500    268.08495   -2164113.2            0   -2141415.4     50252.81     12672801 
   92600    268.41339   -2163866.2            0   -2141140.6     50575.34     12662074 
   92700    268.48355   -2163594.1            0   -2140862.5    50876.966     12651347 
   92800    268.60745   -2163325.2            0   -2140583.2    51085.053     12640620 
   92900    268.63206   -2163047.5            0   -2140303.3    51325.634     12629893 
   93000    268.83408   -2162784.8            0   -2140023.6    51638.107     12619166 
   93100    269.11132   -2162530.1            0   -2139745.4    51881.725     12608439 
   93200    269.33026   -2162272.1            0   -2139468.9    52092.779     12597713 
   93300    269.10524   -2161978.5            0   -2139194.3    52279.951     12586986 
   93400    268.91765   -2161690.4            0   -2138922.1    52548.681     12576259 
   93500    268.83189   -2161413.6            0   -2138652.6    52771.844     12565532 
   93600    268.75308   -2161138.8            0   -2138384.4    52847.699     12554805 
   93700    268.40215   -2160841.9            0   -2138117.2     53000.94     12544078 
   93800    268.42616   -2160577.3            0   -2137850.7    53216.004     12533351 
   93900    268.75255   -2160337.4            0   -2137583.1    53327.169     12522624 
   94000    268.24329   -2160024.9            0   -2137313.7    53552.825     12511897 
   94100    268.24505   -2159754.4            0   -2137043.1    53812.841     12501170 
   94200    268.22362   -2159478.8            0   -2136769.2    54006.174     12490443 
   94300    268.02653   -2159184.3            0   -2136491.4    54177.705     12479716 
   94400    267.87938     -2158890            0   -2136209.6    54405.053     12468989 
   94500    267.79221   -2158596.1            0   -2135923.1    54735.134     12458262 
   94600    268.28161   -2158346.3            0   -2135631.9    54968.618     12447535 
   94700    268.57376   -2158074.9            0   -2135335.7    55233.964     12436808 
   94800    268.45162     -2157764            0   -2135035.1    55421.603     12426082 
   94900    268.25779   -2157443.5            0     -2134731    55758.494     12415355 
   95000    268.38321   -2157147.9            0   -2134424.8    56132.662     12404628 
   95100    268.41864   -2156843.4            0   -2134117.3    56347.348     12393901 
   95200    268.73834   -2156562.1            0     -2133809    56502.296     12383174 
   95300    268.76481   -2156256.8            0   -2133501.5    56950.303     12372447 
   95400    268.98854   -2155970.1            0   -2133195.8    57131.079     12361720 
   95500    268.63163   -2155635.6            0   -2132891.5     57314.35     12350993 
   95600    268.67826   -2155337.4            0   -2132589.3    57568.647     12340266 
   95700    268.70271   -2155038.7            0   -2132288.6    57761.841     12329539 
   95800     268.9791   -2154763.7            0   -2131990.2    57979.842     12318812 
   95900    268.74688   -2154445.7            0   -2131691.8    58191.108     12308085 
   96000     268.7453   -2154148.5            0   -2131394.8    58336.846     12297358 
   96100    268.45741   -2153826.3            0   -2131096.9    58622.143     12286631 
   96200    268.35632     -2153520            0   -2130799.2    58809.698     12275904 
   96300    268.33308     -2153219            0   -2130500.2    59006.026     12265178 
   96400    268.56561   -2152938.6            0   -2130200.1    59392.905     12254451 
   96500    268.29048   -2152612.1            0   -2129896.9    59620.722     12243724 
   96600    267.98484   -2152279.1            0   -2129589.8    59878.914     12232997 
   96700    267.94897   -2151965.2            0   -2129278.9    60225.209     12222270 
   96800    268.03474     -2151658            0   -2128964.4     60445.21     12211543 
   96900    268.08991   -2151343.4            0   -2128645.2    60718.635     12200816 
   97000    268.24702   -2151033.7            0   -2128322.2    60911.938     12190089 
   97100    268.07459   -2150692.1            0   -2127995.2    61309.985     12179362 
   97200    268.40968   -2150391.6            0   -2127666.3    61656.867     12168635 
   97300    268.43525   -2150062.4            0   -2127334.9    61936.117     12157908 
   97400    268.46482   -2149732.3            0   -2127002.3    62172.809     12147181 
   97500    268.41281     -2149394            0   -2126668.5    62403.078     12136454 
   97600    268.34626   -2149053.5            0   -2126333.5     62526.63     12125727 
   97700    268.20213   -2148705.3            0   -2125997.6    62903.223     12115000 
   97800    268.34668   -2148380.9            0     -2125661    63122.315     12104273 
   97900     268.5687     -2148062            0   -2125323.3    63374.825     12093547 
   98000    268.63217   -2147729.3            0   -2124985.2    63660.073     12082820 
   98100    268.21286   -2147354.9            0   -2124646.3    63849.553     12072093 
   98200    268.49369   -2147040.4            0     -2124308    64041.315     12061366 
   98300    268.05083   -2146663.2            0   -2123968.3     64277.76     12050639 
   98400    268.53637   -2146365.4            0   -2123629.4    64583.978     12039912 
   98500     268.4091   -2146014.1            0   -2123288.9    64883.659     12029185 
   98600    268.75875   -2145703.1            0   -2122948.3    65215.038     12018458 
   98700    268.52362   -2145340.4            0   -2122605.5        65528     12007731 
   98800    268.40785   -2144986.2            0   -2122261.1    65650.601     11997004 
   98900    268.52061   -2144649.8            0   -2121915.1    66033.812     11986277 
   99000    268.57202   -2144305.7            0   -2121566.7    66341.033     11975550 
   99100    268.56132   -2143954.9            0   -2121216.8    66510.052     11964823 
   99200    268.21783   -2143574.2            0   -2120865.2    66966.073     11954096 
   99300    268.69713     -2143263            0   -2120513.4     67190.98     11943369 
   99400    268.93337   -2142930.3            0   -2120160.7    67450.487     11932643 
   99500    268.43712   -2142534.5            0   -2119806.9    67685.446     11921916 
   99600    268.46872   -2142182.3            0     -2119452    68060.626     11911189 
   99700    268.87568   -2141860.7            0   -2119095.9    68359.293     11900462 
   99800     268.4477   -2141466.6            0   -2118738.1    68689.285     11889735 
   99900    268.50176   -2141111.6            0   -2118378.5    68966.381     11879008 
  100000    268.60195   -2140758.9            0   -2118017.3    69237.969     11868281 
  100100    268.26021   -2140366.1            0   -2117653.5     69414.72     11857554 
  100200    268.21917   -2139998.1            0     -2117289    69733.496     11846827 
  100300    268.23965   -2139633.9            0     -2116923    70001.287     11836100 
  100400    268.49057   -2139286.7            0   -2116554.6     70310.96     11825373 
  100500    268.33961     -2138904            0   -2116184.7    70609.736     11814646 
  100600    268.29868   -2138528.5            0   -2115812.6    70872.773     11803919 
  100700    268.07353   -2138135.4            0   -2115438.6     71174.59     11793192 
  100800    268.43182   -2137788.4            0   -2115061.3    71476.517     11782465 
  100900    267.83805   -2137356.6            0   -2114679.7    71649.799     11771739 
  101000    268.36924   -2137017.5            0   -2114295.6    72011.664     11761012 
  101100    268.38633   -2136630.5            0   -2113907.2    72386.523     11750285 
  101200    268.30004   -2136232.2            0   -2113516.2    72664.485     11739558 
  101300    268.30194     -2135839            0   -2113122.8    72913.848     11728831 
  101400    268.31775   -2135444.6            0   -2112727.1     73272.48     11718104 
  101500    268.48131   -2135060.9            0   -2112329.6    73500.746     11707377 
  101600     268.5874   -2134671.3            0     -2111931    73874.824     11696650 
  101700    268.37253   -2134253.4            0   -2111531.3     74150.98     11685923 
  101800    268.72853   -2133883.5            0   -2111131.3    74424.506     11675196 
  101900    268.77405   -2133486.8            0   -2110730.7     74853.27     11664469 
  102000    269.37266     -2133137            0   -2110330.2    75121.574     11653742 
  102100    268.69876   -2132679.2            0   -2109929.5    75462.947     11643015 
  102200    269.11073   -2132316.1            0   -2109531.5    75737.114     11632288 
  102300    269.17182   -2131924.4            0   -2109134.5    76060.617     11621561 
  102400    269.01119     -2131516            0   -2108739.8    76377.018     11610834 
  102500    268.52348     -2131081            0   -2108346.1    76673.998     11600108 
  102600    268.89689   -2130721.9            0   -2107955.4    76980.461     11589381 
  102700    268.68599   -2130314.9            0   -2107566.2    77355.717     11578654 
  102800    268.61133   -2129918.7            0   -2107176.3    77637.373     11567927 
  102900    268.10416     -2129485            0   -2106785.6    77919.143     11557200 
  103000    268.41821   -2129119.6            0   -2106393.5      78273.2     11546473 
  103100    268.33904   -2128717.6            0   -2105998.3    78581.667     11535746 
  103200    268.26291   -2128311.8            0   -2105598.9    78959.141     11525019 
  103300    268.10887   -2127895.4            0   -2105195.6    79162.786     11514292 
  103400    268.31124   -2127504.9            0   -2104787.9    79604.567     11503565 
  103500    267.89716   -2127057.5            0   -2104375.6    79996.116     11492838 
  103600    267.84856   -2126637.5            0   -2103959.7    80237.582     11482111 
  103700     268.1438   -2126242.2            0   -2103539.4    80609.297     11471384 
  103800    268.24707   -2125825.8            0   -2103114.3    80945.901     11460657 
  103900    268.01025   -2125376.4            0   -2102684.9    81324.686     11449930 
  104000    267.93056   -2124936.6            0   -2102251.9     81691.85     11439204 
  104100    268.19788   -2124523.2            0   -2101815.8    82115.264     11428477 
  104200    268.50292   -2124110.4            0   -2101377.2    82388.568     11417750 
  104300    268.85306     -2123700            0   -2100937.2    82793.704     11407023 
  104400    268.38799   -2123218.5            0   -2100495.1      83103.5     11396296 
  104500    268.84075   -2122815.3            0   -2100053.5    83533.288     11385569 
  104600    268.85761   -2122374.1            0   -2099610.9    83760.673     11374842 
  104700    268.58052   -2121907.8            0   -2099168.1    84150.721     11364115 
  104800    268.91608   -2121492.8            0   -2098724.7     84405.96     11353388 
  104900    268.23044   -2120990.6            0   -2098280.5     84910.09     11342661 
  105000    268.39226   -2120559.2            0   -2097835.4     85076.46     11331934 
  105100    268.45369   -2120117.9            0   -2097388.9    85315.922     11321207 
  105200    268.60782   -2119681.3            0   -2096939.3    85818.141     11310480 
  105300    268.50432   -2119221.4            0     -2096488    86137.638     11299753 
  105400    268.16829   -2118739.3            0   -2096034.4    86590.233     11289026 
  105500    268.17338   -2118282.8            0   -2095577.5    86966.017     11278300 
  105600     268.7395     -2117873            0   -2095119.8    87309.611     11267573 
  105700    269.00394   -2117434.6            0     -2094659    87658.372     11256846 
  105800     269.0596     -2116977            0   -2094196.6    88107.233     11246119 
  105900    268.67285   -2116479.9            0   -2093732.3    88642.868     11235392 
  106000    268.48882   -2115998.8            0   -2093266.8    88990.073     11224665 
  106100    268.50734   -2115533.5            0   -2092799.9    89270.946     11213938 
  106200    268.86801   -2115097.6            0   -2092333.5    89706.975     11203211 
  106300    268.61537   -2114607.7            0     -2091865    90142.968     11192484 
  106400    268.86038   -2114160.7            0   -2091397.3    90546.995     11181757 
  106500    268.98959     -2113704            0   -2090929.6    90878.823     11171030 
  106600    269.24782   -2113258.8            0   -2090462.5    91250.394     11160303 
  106700    268.53735   -2112730.1            0     -2089994    91636.388     11149576 
  106800    268.81709   -2112286.2            0   -2089526.4    91981.885     11138849 
  106900     268.5634   -2111794.5            0   -2089056.1    92341.836     11128122 
  107000    268.00835   -2111275.5            0   -2088584.2    92677.623     11117395 
  107100      268.411   -2110835.5            0   -2088110.1    93113.889     11106669 
  107200    268.56651     -2110370            0   -2087631.4    93364.501     11095942 
  107300    267.82338   -2109823.5            0   -2087147.9    93762.427     11085215 
  107400    267.80571   -2109333.7            0   -2086659.6    94148.255     11074488 
  107500    268.18733   -2108872.7            0   -2086166.2    94678.703     11063761 
  107600    268.00124   -2108357.2            0   -2085666.5    95091.843     11053034 
  107700    267.91794   -2107845.8            0   -2085162.1    95492.864     11042307 
  107800    268.22513   -2107362.3            0   -2084652.6    95946.531     11031580 
  107900    268.60909   -2106880.4            0   -2084138.2     96305.22     11020853 
  108000     268.5673     -2106358            0   -2083619.4    96733.431     11010126 
  108100    268.08475   -2105793.5            0   -2083095.7    97259.553     10999399 
  108200     268.6418   -2105315.1            0   -2082570.2    97859.397     10988672 
  108300    268.86639   -2104806.2            0   -2082042.2    98255.043     10977945 
  108400    268.84348   -2104274.9            0   -2081512.9    98588.945     10967218 
  108500     268.7667   -2103739.6            0   -2080984.1    99000.884     10956491 
  108600    268.98435   -2103230.1            0   -2080456.2     99462.27     10945765 
  108700    269.03047   -2102707.3            0   -2079929.4    99803.357     10935038 
  108800    269.18418     -2102195            0   -2079404.1       100182     10924311 
  108900    268.69868   -2101629.4            0   -2078879.6    100557.59     10913584 
  109000    268.58631   -2101097.1            0   -2078356.9    100979.18     10902857 
  109100     268.2848     -2100549            0   -2077834.2    101405.61     10892130 
  109200    268.52189   -2100046.9            0   -2077312.1    101715.27     10881403 
  109300    268.04801   -2099482.9            0   -2076788.2    102131.59     10870676 
  109400    268.37576   -2098985.1            0   -2076262.6    102541.67     10859949 
  109500    268.47657   -2098464.7            0   -2075733.8    103041.78     10849222 
  109600    268.60343   -2097943.2            0   -2075201.5    103594.63     10838495 
  109700    268.11945   -2097364.9            0   -2074664.2    103962.44     10827768 
  109800     268.4922   -2096856.1            0   -2074123.8    104448.42     10817041 
  109900    268.29198   -2096294.5            0   -2073579.2    104950.72     10806314 
  110000    268.61155   -2095773.5            0   -2073031.1     105353.9     10795587 
Loop time of 6348.96 on 64 procs for 60000 steps with 655009 atoms

Performance: 1.633 ns/day, 14.697 hours/ns, 9.450 timesteps/s
88.6% CPU use with 64 MPI tasks x no OpenMP threads

MPI task timing breakdown:
Section |  min time  |  avg time  |  max time  |%varavg| %total
---------------------------------------------------------------
Pair    | 1279.6     | 2919.8     | 4730.9     |1400.5 | 45.99
Neigh   | 129.34     | 297.78     | 469.85     | 472.4 |  4.69
Comm    | 717.76     | 2419.1     | 4615       |1930.7 | 38.10
Output  | 14.979     | 20.082     | 23.051     |  34.0 |  0.32
Modify  | 217.49     | 659.03     | 1299.8     |1389.7 | 10.38
Other   |            | 33.24      |            |       |  0.52

Nlocal:    10234.5 ave 15017 max 5971 min
Histogram: 4 0 12 8 12 12 10 2 0 4
Nghost:    9011.47 ave 10772 max 7530 min
Histogram: 8 4 11 7 10 4 1 7 5 7
Neighs:    316936 ave 441357 max 141451 min
Histogram: 4 0 4 4 4 21 11 0 4 12
FullNghs:  633120 ave 869902 max 293264 min
Histogram: 4 0 1 7 4 24 8 0 4 12

Total # of neighbors = 40519702
Ave neighs/atom = 61.8613
Neighbor list builds = 6000
Dangerous builds = 5988

unfix deform
run 10000
Memory usage per processor = 12.2084 Mbytes
Step Temp E_pair E_mol TotEng Press Volume 
  110000    268.61155   -2095767.9            0   -2073025.5    105364.87     10795587 
  110100    267.99925   -2095725.9            0   -2073035.3     105376.7     10795587 
  110200    268.02202   -2095736.4            0   -2073043.9    105364.22     10795587 
  110300    268.18666   -2095757.6            0   -2073051.2    105308.42     10795587 
  110400     268.5096   -2095790.4            0   -2073056.6    105258.01     10795587 
  110500     268.3552     -2095781            0   -2073060.3     105306.3     10795587 
  110600    268.50969   -2095796.5            0   -2073062.7    105378.92     10795587 
  110700    268.63555   -2095809.4            0     -2073065    105361.69     10795587 
  110800    268.53808   -2095802.4            0   -2073066.3    105287.71     10795587 
  110900    268.44873   -2095796.7            0   -2073068.1    105370.13     10795587 
  111000    268.62386   -2095813.8            0   -2073070.4     105544.6     10795587 
  111100    268.82923   -2095834.1            0   -2073073.3    105440.29     10795587 
  111200    268.29967     -2095793            0     -2073077    105514.99     10795587 
  111300    269.14163     -2095871            0   -2073083.7    105446.17     10795587 
  111400    268.55422   -2095828.3            0   -2073090.7    105543.29     10795587 
  111500    268.83875   -2095861.5            0   -2073099.9    105463.32     10795587 
  111600    268.57021     -2095850            0   -2073111.1    105439.56     10795587 
  111700     268.3577     -2095844            0   -2073123.2    105390.96     10795587 
  111800    269.27299   -2095936.1            0   -2073137.7     105295.9     10795587 
  111900    268.45028   -2095880.8            0   -2073152.1    105451.58     10795587 
  112000    268.46479   -2095897.4            0   -2073167.5     105350.2     10795587 
  112100    268.11094   -2095883.2            0   -2073183.2    105276.16     10795587 
  112200    268.51032   -2095932.7            0   -2073198.9     105309.6     10795587 
  112300    268.48726   -2095945.3            0   -2073213.4    105358.14     10795587 
  112400    267.95936   -2095913.5            0   -2073226.3    105317.18     10795587 
  112500    268.50891   -2095972.2            0   -2073238.5    105394.58     10795587 
  112600    267.96406   -2095936.2            0   -2073248.6     105329.9     10795587 
  112700    268.38646   -2095981.4            0   -2073258.1    105322.85     10795587 
  112800    267.98679   -2095954.9            0   -2073265.4    105331.98     10795587 
  112900    268.42389   -2095998.4            0   -2073271.9    105433.05     10795587 
  113000    268.27173   -2095989.3            0   -2073275.7    105386.16     10795587 
  113100    268.54937   -2096015.5            0   -2073278.3    105465.76     10795587 
  113200    268.27471   -2095992.8            0   -2073278.9    105372.95     10795587 
  113300    268.28669   -2095992.2            0   -2073277.3    105438.23     10795587 
  113400    268.51343   -2096008.5            0   -2073274.4     105378.1     10795587 
  113500    268.50703   -2096003.8            0   -2073270.2    105289.57     10795587 
  113600    268.29502   -2095980.4            0   -2073264.8    105382.26     10795587 
  113700    268.42307   -2095985.2            0   -2073258.8    105302.67     10795587 
  113800    268.55122   -2095988.5            0   -2073251.2    105325.31     10795587 
  113900    268.38969   -2095966.9            0   -2073243.3    105321.23     10795587 
  114000    268.65189   -2095981.9            0   -2073236.1       105298     10795587 
  114100    268.24773   -2095939.9            0   -2073228.4    105305.66     10795587 
  114200    268.57133   -2095960.6            0   -2073221.7    105329.41     10795587 
  114300    268.68804   -2095964.4            0   -2073215.5    105333.85     10795587 
  114400    268.47272   -2095941.9            0   -2073211.3    105499.94     10795587 
  114500    269.23106   -2096003.4            0   -2073208.6    105379.42     10795587 
  114600    268.87659   -2095972.9            0     -2073208    105489.66     10795587 
  114700    269.09436     -2095993            0   -2073209.7    105371.35     10795587 
  114800    268.62382   -2095956.7            0   -2073213.3    105500.34     10795587 
  114900    269.08582   -2096003.2            0   -2073220.7     105464.7     10795587 
  115000    268.91012   -2095997.3            0   -2073229.6    105378.19     10795587 
  115100    268.62897   -2095984.4            0   -2073240.6    105432.92     10795587 
  115200     268.8434     -2096016            0     -2073254    105357.52     10795587 
  115300     269.0653     -2096049            0   -2073268.2    105394.44     10795587 
  115400    268.88687   -2096049.2            0   -2073283.5    105328.93     10795587 
  115500     268.5068   -2096031.4            0   -2073297.9    105271.25     10795587 
  115600    268.14873   -2096015.5            0   -2073312.3    105290.39     10795587 
  115700    268.18855   -2096032.9            0   -2073326.3    105342.15     10795587 
  115800    268.15587   -2096042.3            0   -2073338.5    105337.36     10795587 
  115900    268.36194   -2096070.5            0   -2073349.2    105297.04     10795587 
  116000    267.93482   -2096042.6            0   -2073357.6    105328.32     10795587 
  116100    267.76316   -2096033.9            0   -2073363.4    105301.65     10795587 
  116200    268.12054   -2096068.2            0   -2073367.4    105305.06     10795587 
  116300    268.00709   -2096059.8            0   -2073368.6    105493.69     10795587 
  116400    267.86622     -2096046            0   -2073366.7    105392.85     10795587 
  116500    268.01284   -2096054.6            0     -2073363    105366.68     10795587 
  116600     268.4207   -2096084.3            0     -2073358    105327.33     10795587 
  116700    267.95196   -2096037.3            0   -2073350.8    105407.97     10795587 
  116800    268.39143   -2096066.8            0   -2073343.1    105384.83     10795587 
  116900    268.27546   -2096048.6            0   -2073334.7    105305.95     10795587 
  117000     268.6441   -2096071.1            0   -2073325.9    105306.07     10795587 
  117100    268.60545   -2096059.2            0   -2073317.4    105287.25     10795587 
  117200    268.49262   -2096041.3            0     -2073309    105321.03     10795587 
  117300    269.00617     -2096078            0   -2073302.2    105348.13     10795587 
  117400    268.86571   -2096058.9            0     -2073295    105250.53     10795587 
  117500    268.71796   -2096040.4            0     -2073289    105337.29     10795587 
  117600    268.63268   -2096028.6            0   -2073284.5     105308.9     10795587 
  117700     268.5413   -2096018.8            0   -2073282.4    105303.85     10795587 
  117800    269.07452   -2096063.7            0   -2073282.1    105286.74     10795587 
  117900    268.70765     -2096034            0   -2073283.5     105378.6     10795587 
  118000    268.70227     -2096037            0     -2073287    105292.98     10795587 
  118100    268.86858   -2096057.6            0   -2073293.5    105291.27     10795587 
  118200    268.72376   -2096053.3            0   -2073301.4    105347.82     10795587 
  118300    268.94416   -2096082.2            0   -2073311.7    105392.95     10795587 
  118400    268.62584   -2096066.5            0     -2073323    105296.75     10795587 
  118500    268.38852   -2096059.1            0   -2073335.6    105409.13     10795587 
  118600    268.83338   -2096110.7            0   -2073349.6    105404.69     10795587 
  118700    268.40648   -2096088.8            0   -2073363.7    105337.94     10795587 
  118800    268.10175   -2096076.5            0   -2073377.3    105371.78     10795587 
  118900     268.0666   -2096087.3            0   -2073391.1    105327.01     10795587 
  119000    268.50968   -2096137.8            0   -2073404.1    105338.73     10795587 
  119100    268.20409   -2096123.4            0   -2073415.5     105372.5     10795587 
  119200    268.24399   -2096136.8            0   -2073425.5    105387.83     10795587 
  119300    267.76501   -2096103.3            0   -2073432.6    105346.66     10795587 
  119400     267.9191   -2096121.5            0   -2073437.8    105341.81     10795587 
  119500     268.1184   -2096141.2            0   -2073440.6    105269.41     10795587 
  119600    267.61251     -2096098            0   -2073440.2    105311.12     10795587 
  119700    268.53011   -2096174.3            0   -2073438.8    105236.54     10795587 
  119800    267.97605   -2096122.8            0   -2073434.2    105345.11     10795587 
  119900    267.81998   -2096102.7            0   -2073427.4     105343.2     10795587 
  120000     267.9052   -2096102.1            0   -2073419.6    105299.78     10795587 
Loop time of 1051.28 on 64 procs for 10000 steps with 655009 atoms

Performance: 1.644 ns/day, 14.601 hours/ns, 9.512 timesteps/s
89.9% CPU use with 64 MPI tasks x no OpenMP threads

MPI task timing breakdown:
Section |  min time  |  avg time  |  max time  |%varavg| %total
---------------------------------------------------------------
Pair    | 254.19     | 538.3      | 788.24     | 511.7 | 51.20
Neigh   | 25.844     | 53.19      | 75.951     | 165.0 |  5.06
Comm    | 125.59     | 372.12     | 719.92     | 726.9 | 35.40
Output  | 2.4532     | 3.1706     | 3.7142     |  14.8 |  0.30
Modify  | 32.7       | 79.338     | 141.11     | 365.2 |  7.55
Other   |            | 5.169      |            |       |  0.49

Nlocal:    10234.5 ave 14838 max 6152 min
Histogram: 4 0 14 9 9 12 8 4 0 4
Nghost:    9023.11 ave 10823 max 7519 min
Histogram: 8 4 14 4 10 4 1 7 4 8
Neighs:    316474 ave 433756 max 145433 min
Histogram: 4 0 4 4 4 21 11 0 4 12
FullNghs:  632948 ave 869237 max 303368 min
Histogram: 4 0 4 4 5 23 8 0 4 12

Total # of neighbors = 40508650
Ave neighs/atom = 61.8444
Neighbor list builds = 1000
Dangerous builds = 998
Total wall time: 2:03:22
