LAMMPS (27 Aug 2016-ICMS)
include "system.in"


# ----------------- Init Section -----------------

include "system.in.init"
  units         metal
  boundary      p p p
  atom_style    atomic
  pair_style    vashishta
  #pair_modify  mix arithmetic  # LEAVE THIS UNSPECIFIED!


# ----------------- Atom Definition Section -----------------

read_data "system.data"
  orthogonal box = (0 0 0) to (320.4 320.4 178)
  2 by 2 by 2 MPI processor grid
  reading atoms ...
  1215000 atoms

# ----------------- Settings Section -----------------

include "system.in.settings"
  pair_coeff  * *  SiO2.vashishta Si O
Reading potential file SiO2.vashishta with DATE: 2015-10-14
  pair_modify table 16
  pair_modify tabinner 0.1


# ----------------- Run Section -----------------

# The lines above define the system you want to simulate.
# What you do next is up to you.
# Typically a user would minimize and equilibrate
# the system using commands similar to the following:
#  ----   examples   ----
#
#  -- minimize --
# minimize 1.0e-5 1.0e-7 1000 10000
# (Note: Some fixes, for example "shake", interfere with the minimize command,
#        You can use the "unfix" command to disable them before minimization.)
#  -- declare time step for normal MD --
# timestep 1.0
#  -- run at constant pressure (Nose-Hoover)--
# fix   fxnpt all npt temp 300.0 300.0 100.0 iso 1.0 1.0 1000.0 drag 1.0
#  -- ALTERNATELY, run at constant volume (Nose-Hoover) --
# fix   fxnvt all nvt temp 300.0 300.0 500.0 tchain 1
#  -- ALTERNATELY, run at constant volume using Langevin dynamics. --
#  -- (This is good for sparse CG polymers in implicit solvent.)   --
# fix fxLAN all langevin 300.0 300.0 5000 48279
# fix fxNVE all nve  #(<--needed by fix langevin)
#  -- Now, finally run the simulation --
# run   50000
#  ---- (end of examples) ----


variable N equal 5000
variable T equal 500
variable compressionLength equal 5

velocity	all create ${T} 277387 mom yes
velocity	all create 500 277387 mom yes
include "system.prepare"
#region ID style args keyword arg ...



#Define the region of the sphere
#sphere args = x y z radius
region sphereRegion sphere 160.2 160.2 178.0 106.8
group  sphereGroup region sphereRegion
168860 atoms in group sphereGroup

#Define the region of the slab
#Group the atoms in the slab
#block args = xlo xhi ylo yhi zlo zhi
region slabRegion block 0 INF 0 INF 0 53.4
group  slabGroup region slabRegion
368550 atoms in group slabGroup

#Define the region that is outside the sphere and slab
#union args = N reg-ID1 reg-ID2 ...
region bothRegion union 2 sphereRegion slabRegion side out

#Delete all atoms exterior to the sphere and slab
#delete_atoms style args keyword value ...
delete_atoms region bothRegion
Deleted 677590 atoms, new total = 537410

#Set up reflecting walls at top and bottom face in z-direction
#fix ID group-ID wall/reflect face arg ... keyword value ...
#fix zWallsID all wall/reflect zlo EDGE zhi EDGE


#Freeze the "bottom" of the slab
region RbottomAtomsID block 0.0 INF 0.0 INF 0.0 3.0
group bottomAtomsID region RbottomAtomsID
24300 atoms in group bottomAtomsID
fix freezeID bottomAtomsID setforce 0 0 0
velocity bottomAtomsID set 0 0 0

#read_restart squeeze.1000.restart
#include "system.in.settings"

restart 1000 restartFiles/squeeze*.restart
neighbor	0.3 bin
neigh_modify	delay 10

thermo		100
timestep	0.002

#dump myDump all atom 500 dumpFiles/SiO2_*.dump

#Move the top z-boundary downwards
#fix deform all deform 1 z delta 0 -${compressionLength} remap x

fix nvt all nvt temp ${T} ${T} 1.0
fix nvt all nvt temp 500 ${T} 1.0
fix nvt all nvt temp 500 500 1.0
run ${N}
run 5000
Neighbor list info ...
  1 neighbor list requests
  update every 1 steps, delay 10 steps, check yes
  max neighbors/atom: 2000, page size: 100000
  master list distance cutoff = 5.8
  ghost atom cutoff = 5.8
  binsize = 2.9 -> bins = 111 111 62
Memory usage per processor = 30.7254 Mbytes
Step Temp E_pair E_mol TotEng Press 
       0    477.24066     -1720133            0   -1686981.2    98016.427 
     100    1008.3626   -1757464.2            0   -1687417.7    9561.7256 
     200    1018.6549     -1759506            0   -1688744.6    9266.6922 
     300    1012.8507   -1760619.5            0   -1690261.3    7902.8079 
     400     1000.025   -1761341.2            0   -1691873.8    6493.9993 
     500    975.00833   -1761262.4            0   -1693532.9     5225.539 
     600    950.90823   -1761240.7            0   -1695185.3    3945.9959 
     700    929.38718   -1761384.7            0   -1696824.3    2891.1384 
     800     909.1426   -1761599.4            0   -1698445.3    1995.4808 
     900    893.17403   -1762088.9            0     -1700044     1341.145 
    1000     887.2923     -1763275            0   -1701638.7    1464.7806 
    1100    888.32452   -1764966.3            0   -1703258.3    2253.8341 
    1200     889.2426   -1766676.7            0   -1704904.9    3125.8561 
    1300    888.73397     -1768314            0   -1706577.6    3981.3333 
    1400    885.33056   -1769768.5            0   -1708268.5    4776.6013 
    1500     880.1843   -1771110.7            0   -1709968.2    5607.4399 
    1600    872.73739   -1772289.2            0     -1711664    6426.6799 
    1700    861.55629     -1773193            0   -1713344.5    7158.8064 
    1800    854.24212   -1774349.4            0     -1715009    7802.8606 
    1900    843.31784   -1775236.7            0   -1716655.1    8326.8912 
    2000    835.39338     -1776313            0   -1718281.9    8301.4852 
    2100    825.27594   -1777221.8            0   -1719893.5    8057.2437 
    2200    817.19843   -1778250.8            0   -1721483.6    7646.2566 
    2300     807.9735   -1779175.7            0   -1723049.3    7170.2398 
    2400    798.80063   -1780081.1            0   -1724591.9    6746.4687 
    2500    787.03443   -1780777.6            0   -1726105.8    6259.1599 
    2600    774.08905   -1781357.7            0   -1727585.2    5781.5477 
    2700    762.16958     -1781971            0   -1729026.5    5235.9629 
    2800    748.66688   -1782433.5            0     -1730427    4699.2664 
    2900    737.74248   -1783036.2            0   -1731788.5    4258.4721 
    3000    727.21993   -1783631.2            0   -1733114.5      4118.37 
    3100    718.07038   -1784289.3            0   -1734408.2    4054.8004 
    3200    712.13763   -1785148.7            0   -1735679.6    4130.6586 
    3300    705.58644   -1785944.7            0   -1736930.7    4349.4353 
    3400    699.80645   -1786776.2            0   -1738163.8    4586.7971 
    3500    694.15438     -1787600            0   -1739380.2    4959.4961 
    3600    687.37192   -1788325.4            0   -1740576.7    5206.2664 
    3700    682.04513   -1789133.7            0     -1741755    5550.2157 
    3800    676.21911   -1789884.4            0   -1742910.5    5822.3443 
    3900    669.34907   -1790540.9            0   -1744044.1    6011.3306 
    4000    662.89265   -1791202.8            0   -1745154.6    6211.8924 
    4100    655.74679     -1791794            0   -1746242.2     6212.755 
    4200     650.2933   -1792482.1            0   -1747309.1     6082.001 
    4300    644.01752   -1793089.4            0   -1748352.3    5950.7742 
    4400    637.78134     -1793678            0   -1749374.2    5688.8391 
    4500    632.19221   -1794288.9            0   -1750373.4    5542.0643 
    4600     625.0845   -1794768.4            0   -1751346.6    5264.2724 
    4700     616.5731   -1795121.7            0   -1752291.1    5002.1375 
    4800    609.51974   -1795548.5            0   -1753207.9     4706.791 
    4900    602.16226   -1795923.6            0   -1754094.1    4455.3767 
    5000    595.14206     -1796293            0   -1754951.1    4240.7303 
Loop time of 1543.9 on 8 procs for 5000 steps with 537410 atoms

Performance: 0.560 ns/day, 42.886 hours/ns, 3.239 timesteps/s
78.3% CPU use with 8 MPI tasks x no OpenMP threads

MPI task timing breakdown:
Section |  min time  |  avg time  |  max time  |%varavg| %total
---------------------------------------------------------------
Pair    | 575.78     | 934.63     | 1287.3     |1116.0 | 60.54
Neigh   | 65.177     | 108.2      | 153.04     | 411.4 |  7.01
Comm    | 36.798     | 439.55     | 849.68     |1873.6 | 28.47
Output  | 0.38323    | 0.39979    | 0.41559    |   2.4 |  0.03
Modify  | 44.261     | 53.206     | 62.216     | 115.9 |  3.45
Other   |            | 7.913      |            |       |  0.51

Nlocal:    67176.2 ave 94421 max 39928 min
Histogram: 4 0 0 0 0 0 0 0 0 4
Nghost:    19609.4 ave 19826 max 19426 min
Histogram: 3 1 0 0 0 0 0 1 2 1
Neighs:    0 ave 0 max 0 min
Histogram: 8 0 0 0 0 0 0 0 0 0
FullNghs:  3.54834e+06 ave 4.98005e+06 max 2.11788e+06 min
Histogram: 4 0 0 0 0 0 0 0 0 4

Total # of neighbors = 28386738
Ave neighs/atom = 52.8214
Neighbor list builds = 500
Dangerous builds = 495

#----------------------------------------------------

dump myDump all atom 500 dumpFiles/SiO2_*.dump

#Move the top z-boundary downwards
fix deform all deform 1 z delta 0 -${compressionLength} remap x
fix deform all deform 1 z delta 0 -5 remap x

fix nvt all nvt temp ${T} ${T} 1.0
fix nvt all nvt temp 500 ${T} 1.0
fix nvt all nvt temp 500 500 1.0
run 20000
Memory usage per processor = 38.3337 Mbytes
Step Temp E_pair E_mol TotEng Press Volume 
    5000    595.14206     -1796293            0   -1754951.1    4240.7303     18272796 
    5100    593.97796   -1796389.6            0   -1755128.6     4149.048     18270230 
    5200    592.55198   -1796554.8            0   -1755392.9    4059.7046     18267664 
    5300    590.67135   -1796732.2            0   -1755700.9    4078.8678     18265097 
    5400    588.71037   -1796928.2            0   -1756033.1    4146.3639     18262531 
    5500    588.08564     -1797235            0   -1756383.3     4149.637     18259964 
    5600    586.37849   -1797480.7            0   -1756747.6    4283.5056     18257398 
    5700    585.38325   -1797786.4            0   -1757122.4    4364.1549     18254832 
    5800    583.77041   -1798056.5            0   -1757504.6    4436.3647     18252265 
    5900    580.83009   -1798239.5            0   -1757891.8    4650.5443     18249699 
    6000    579.88321   -1798564.9            0     -1758283    4693.2108     18247132 
    6100    576.58306   -1798727.3            0   -1758674.7    4790.3305     18244566 
    6200    574.90915   -1799004.8            0   -1759068.4    4821.9002     18242000 
    6300    572.22922   -1799211.5            0   -1759461.2    4875.7342     18239433 
    6400    569.68647   -1799425.7            0   -1759852.1    4815.1975     18236867 
    6500    568.60621   -1799742.8            0   -1760244.3    4755.9055     18234300 
    6600    564.62108   -1799854.4            0   -1760632.7    4636.3637     18231734 
    6700    562.94241     -1800125            0   -1761019.9    4699.0169     18229168 
    6800     560.4349   -1800335.2            0   -1761404.3    4565.7276     18226601 
    6900    557.72253   -1800528.3            0   -1761785.8    4551.6247     18224035 
    7000    555.83001   -1800775.4            0   -1762164.3    4546.2027     18221468 
    7100    553.54063   -1800989.1            0   -1762537.1    4406.6839     18218902 
    7200    550.99079   -1801181.2            0   -1762906.3    4451.9047     18216336 
    7300    548.17076   -1801347.4            0   -1763268.4    4512.0332     18213769 
    7400     545.7352   -1801535.9            0   -1763626.1    4457.9314     18211203 
    7500    543.32577   -1801720.2            0   -1763977.8    4510.7854     18208636 
    7600    541.71348   -1801955.7            0   -1764325.2     4514.305     18206070 
    7700    539.58896   -1802149.6            0   -1764666.7    4594.4294     18203504 
    7800    537.89416   -1802369.3            0   -1765004.2     4597.883     18200937 
    7900    537.55597   -1802679.5            0   -1765337.9    4637.3856     18198371 
    8000    534.60449   -1802800.9            0   -1765664.3    4643.2886     18195804 
    8100    533.37514   -1803036.8            0   -1765985.6      4679.36     18193238 
    8200    531.79754   -1803244.3            0   -1766302.7    4705.5995     18190672 
    8300    530.04641   -1803432.9            0     -1766613    4666.0997     18188105 
    8400    527.98488   -1803592.9            0   -1766916.1    4667.2625     18185539 
    8500     526.2073   -1803766.5            0   -1767213.2    4639.6824     18182972 
    8600     523.8653     -1803892            0   -1767501.4    4508.1469     18180406 
    8700     521.0998   -1803978.9            0   -1767780.5    4406.6361     18177840 
    8800    519.24713   -1804122.5            0   -1768052.7    4471.2223     18175273 
    8900    517.01775   -1804230.8            0   -1768315.8    4294.4594     18172707 
    9000    515.20224   -1804358.6            0   -1768569.8    4257.2075     18170140 
    9100    514.48293   -1804553.7            0   -1768814.8    4176.9238     18167574 
    9200    511.83521   -1804606.3            0   -1769051.4    4069.7321     18165008 
    9300    511.17659   -1804788.6            0   -1769279.5    4074.9076     18162441 
    9400    509.43819   -1804886.4            0     -1769498    4032.7349     18159875 
    9500    508.48265   -1805030.3            0   -1769708.2    4141.1786     18157308 
    9600    508.15666   -1805209.4            0     -1769910    4153.1196     18154742 
    9700    506.68268   -1805300.1            0   -1770103.1    4212.6893     18152175 
    9800    505.85043   -1805428.2            0     -1770289     4271.325     18149609 
    9900    505.09101   -1805554.1            0   -1770467.7    4304.3807     18147043 
   10000    504.93596     -1805715            0   -1770639.3    4412.2793     18144476 
   10100    503.36776   -1805768.1            0   -1770801.4    4501.1154     18141910 
   10200    502.51419     -1805864            0   -1770956.6    4582.8552     18139343 
   10300    502.63828   -1806021.6            0   -1771105.6    4638.4851     18136777 
   10400    501.39558   -1806075.5            0   -1771245.8    4657.9494     18134211 
   10500     500.9354   -1806176.4            0   -1771378.7    4703.7214     18131644 
   10600    499.93466   -1806232.2            0     -1771504    4786.8529     18129078 
   10700    499.82803   -1806340.5            0   -1771619.6    4772.6989     18126511 
   10800    499.57377   -1806429.4            0   -1771726.3    4748.6545     18123945 
   10900    499.24155   -1806501.7            0   -1771821.6    4733.9216     18121379 
   11000    498.81185   -1806554.8            0   -1771904.5     4669.202     18118812 
   11100    497.26412   -1806517.1            0   -1771974.4    4524.7217     18116246 
   11200    497.48054   -1806588.7            0   -1772030.9    4528.1702     18113679 
   11300    497.01713   -1806596.4            0   -1772070.8    4540.2487     18111113 
   11400    496.34931   -1806570.8            0   -1772091.6    4436.7474     18108547 
   11500    496.43029   -1806578.1            0   -1772093.3    4367.3355     18105980 
   11600    495.47108   -1806492.4            0   -1772074.2    4350.3832     18103414 
   11700    497.01365   -1806562.6            0   -1772037.3    4351.2604     18100847 
   11800    497.38376   -1806532.9            0   -1771981.8    4303.8137     18098281 
   11900    497.38968   -1806465.4            0   -1771913.9    4389.2181     18095715 
   12000    498.82787   -1806487.9            0   -1771836.5    4466.9932     18093148 
   12100    499.47343     -1806451            0   -1771754.8    4426.6746     18090582 
   12200    500.17733   -1806419.8            0   -1771674.7    4533.5157     18088015 
   12300    501.31926   -1806423.8            0   -1771599.3    4537.4233     18085449 
   12400    501.94534   -1806399.9            0     -1771532    4587.6057     18082883 
   12500    502.88418   -1806409.4            0   -1771476.3    4712.0177     18080316 
   12600    502.79553   -1806362.1            0   -1771435.2    4624.5256     18077750 
   12700    503.30243   -1806373.8            0   -1771411.7    4817.7032     18075183 
   12800    503.92018   -1806412.5            0   -1771407.4    4796.3851     18072617 
   12900    503.80535   -1806420.4            0   -1771423.2    4757.5069     18070051 
   13000     503.4624   -1806432.5            0   -1771459.2    4660.3282     18067484 
   13100    502.27018   -1806402.9            0   -1771512.4    4694.2807     18064918 
   13200    503.03255   -1806525.4            0     -1771582    4784.9082     18062351 
   13300    502.05938     -1806539            0   -1771663.2    4647.6214     18059785 
   13400    501.95825   -1806621.3            0   -1771752.5    4641.3674     18057219 
   13500    500.94266   -1806642.4            0   -1771844.1    4537.6678     18054652 
   13600    499.62486   -1806640.8            0   -1771934.1    4623.4879     18052086 
   13700    499.39543   -1806711.6            0   -1772020.8    4535.5702     18049519 
   13800    499.01904   -1806764.8            0   -1772100.2    4519.2049     18046953 
   13900     499.4251   -1806866.8            0     -1772174    4534.2445     18044387 
   14000    498.19178   -1806842.2            0     -1772235    4520.7042     18041820 
   14100    498.07242   -1806884.6            0   -1772285.7    4506.0524     18039254 
   14200    497.16398   -1806860.1            0   -1772324.3    4573.8586     18036687 
   14300    497.99995   -1806945.8            0     -1772352    4681.7426     18034121 
   14400    498.07982   -1806967.5            0   -1772368.1    4687.8577     18031555 
   14500    498.48656   -1807001.1            0   -1772373.5    4765.0224     18028988 
   14600    498.66152   -1807011.8            0     -1772372    4745.2962     18026422 
   14700    498.98226   -1807024.2            0   -1772362.1    4716.0385     18023855 
   14800    498.77085   -1806996.7            0   -1772349.3     4854.311     18021289 
   14900    499.55886   -1807035.3            0   -1772333.2    4833.1911     18018722 
   15000    501.07521   -1807122.8            0   -1772315.3    4897.7707     18016156 
   15100    500.32356   -1807052.2            0   -1772296.9    4902.3626     18013590 
   15200    500.50214   -1807050.3            0   -1772282.6    4913.7207     18011023 
   15300     500.6893   -1807052.8            0   -1772272.1    4901.6677     18008457 
   15400    501.70578   -1807118.6            0   -1772267.4    4927.8247     18005890 
   15500    500.56117   -1807039.1            0   -1772267.3    4910.4811     18003324 
   15600    500.95189     -1807071            0   -1772272.1         4849     18000758 
   15700    501.22702   -1807101.7            0   -1772283.7    4818.2534     17998191 
   15800    500.66022   -1807078.2            0   -1772299.6    4827.4822     17995625 
   15900    500.34053   -1807075.3            0   -1772318.8    4743.0175     17993058 
   16000     500.6499   -1807120.1            0   -1772342.2    4752.9439     17990492 
   16100    500.00985   -1807099.3            0   -1772365.8    4719.6735     17987926 
   16200    500.38688   -1807152.4            0   -1772392.8    4645.9003     17985359 
   16300    499.48074   -1807115.6            0   -1772418.8    4696.4568     17982793 
   16400    499.75542   -1807161.5            0   -1772445.7    4614.5974     17980226 
   16500    500.13707   -1807215.1            0   -1772472.8    4685.5605     17977660 
   16600    499.86371   -1807221.1            0   -1772497.8    4795.3228     17975094 
   16700    499.88956   -1807247.3            0   -1772522.2     4697.949     17972527 
   16800      500.412     -1807308            0   -1772546.6    4740.9727     17969961 
   16900    500.22802   -1807317.3            0   -1772568.7    4680.6437     17967394 
   17000     500.0012   -1807323.5            0   -1772590.7    4743.4012     17964828 
   17100    499.99642   -1807345.4            0   -1772612.9    4819.8185     17962262 
   17200    499.48958   -1807332.7            0   -1772635.3     4939.441     17959695 
   17300    500.64248   -1807437.4            0     -1772660    4912.0146     17957129 
   17400     500.6108   -1807461.6            0   -1772686.4    4874.5576     17954562 
   17500    500.70446   -1807495.1            0   -1772713.4     4887.732     17951996 
   17600     500.7164   -1807525.3            0   -1772742.7    4884.2136     17949430 
   17700    499.84226   -1807495.2            0   -1772773.4    4901.6458     17946863 
   17800    500.75141   -1807589.5            0   -1772804.5    4937.3882     17944297 
   17900    499.99763   -1807567.5            0   -1772834.9    4872.7567     17941730 
   18000    499.81995   -1807585.6            0   -1772865.4    4911.9648     17939164 
   18100    500.40609     -1807657            0     -1772896    4907.0828     17936598 
   18200    499.91782   -1807651.3            0   -1772924.2     4932.764     17934031 
   18300    498.87351   -1807605.4            0   -1772950.9    4827.2422     17931465 
   18400    499.18254     -1807652            0     -1772976    4817.8833     17928898 
   18500    499.37205   -1807687.3            0   -1772998.2    4899.7493     17926332 
   18600    500.17543   -1807761.2            0   -1773016.2    4802.8413     17923766 
   18700    499.22244   -1807709.1            0   -1773030.3    4874.1536     17921199 
   18800    500.10838   -1807784.1            0   -1773043.8    4855.9073     17918633 
   18900     498.8647   -1807707.4            0   -1773053.4    4861.2417     17916066 
   19000    499.01267   -1807726.3            0   -1773062.1    4908.1312     17913500 
   19100    499.68711   -1807779.5            0   -1773068.5    4840.5099     17910934 
   19200    499.82541   -1807793.7            0     -1773073    4948.8097     17908367 
   19300    500.04257   -1807812.6            0   -1773076.8    4917.2281     17905801 
   19400    499.42892   -1807772.7            0   -1773079.6    4869.4525     17903234 
   19500     499.9346   -1807810.2            0   -1773081.9    4861.6838     17900668 
   19600    499.62668   -1807791.3            0   -1773084.5    4840.0402     17898101 
   19700    500.10059   -1807827.4            0   -1773087.6    4901.1969     17895535 
   19800    500.44723   -1807855.5            0   -1773091.7    4911.1729     17892969 
   19900     500.5644     -1807867            0     -1773095    4850.6933     17890402 
   20000    499.61801     -1807805            0   -1773098.8    4869.3709     17887836 
   20100    500.51339   -1807871.2            0   -1773102.8    4862.2316     17885269 
   20200    500.23186   -1807855.8            0   -1773106.9    4870.1422     17882703 
   20300    500.48596   -1807878.5            0     -1773112    4900.0073     17880137 
   20400    499.74146   -1807829.2            0   -1773114.4    4915.8562     17877570 
   20500    499.81664   -1807837.6            0   -1773117.6    4834.8004     17875004 
   20600    500.32844   -1807876.5            0   -1773120.9    4889.1743     17872437 
   20700    500.02646   -1807858.6            0     -1773124    4841.7886     17869871 
   20800    499.58302   -1807831.7            0   -1773127.8    4880.2233     17867305 
   20900    500.57316   -1807905.3            0   -1773132.7     4915.799     17864738 
   21000    499.96182   -1807867.7            0   -1773137.6    4945.0149     17862172 
   21100    500.94013   -1807943.1            0   -1773145.1     4998.971     17859605 
   21200    500.85762   -1807948.3            0     -1773156     4926.271     17857039 
   21300    501.75069   -1808024.1            0   -1773169.7    4939.1239     17854473 
   21400     500.5616   -1807957.4            0   -1773185.6    4971.7163     17851906 
   21500    501.10058   -1808014.7            0   -1773205.5    5058.8723     17849340 
   21600    500.10223   -1807967.2            0   -1773227.3    4992.3271     17846773 
   21700    500.34661   -1808008.4            0   -1773251.5    5011.9195     17844207 
   21800    500.24668   -1808027.6            0   -1773277.7    5018.3173     17841641 
   21900    499.94974     -1808035            0   -1773305.7    5078.7495     17839074 
   22000    500.01484   -1808068.2            0   -1773334.4    5017.3533     17836508 
   22100    500.31642   -1808117.1            0   -1773362.3     4916.132     17833941 
   22200    499.49079   -1808085.3            0   -1773387.9    5017.6128     17831375 
   22300    499.01415   -1808074.7            0   -1773410.4    5065.0042     17828809 
   22400    499.35604   -1808118.8            0   -1773430.7    5002.7111     17826242 
   22500    498.16193   -1808050.6            0   -1773445.5    4937.0231     17823676 
   22600    498.91873   -1808112.8            0   -1773455.1    4994.6131     17821109 
   22700    498.91234   -1808116.2            0     -1773459      4900.56     17818543 
   22800    498.59077   -1808092.5            0   -1773457.7    4904.0214     17815977 
   22900    499.88175   -1808174.8            0   -1773450.3    4972.1578     17813410 
   23000    499.42175     -1808130            0   -1773437.3    4962.8849     17810844 
   23100    499.71667   -1808132.9            0   -1773419.8    5048.6621     17808277 
   23200    500.27834   -1808150.4            0   -1773398.3    4994.8001     17805711 
   23300    500.13522   -1808116.9            0   -1773374.7    4986.6877     17803145 
   23400     499.6536   -1808057.7            0     -1773349    5028.3543     17800578 
   23500    500.02411   -1808059.4            0     -1773325    5038.3161     17798012 
   23600    500.02365   -1808034.5            0   -1773300.1    5038.6301     17795445 
   23700    500.68965   -1808058.2            0   -1773277.5    5062.5994     17792879 
   23800    500.56713   -1808028.2            0     -1773256    5051.4674     17790313 
   23900    500.34053   -1807994.6            0   -1773238.1    5020.7341     17787746 
   24000    500.95898   -1808023.9            0   -1773224.5    5027.6766     17785180 
   24100    500.31722   -1807969.9            0   -1773215.1    5003.9245     17782613 
   24200    501.22969   -1808029.4            0   -1773211.2    4999.7897     17780047 
   24300    500.77926   -1807997.3            0   -1773210.4    4914.7618     17777481 
   24400    500.01289   -1807947.9            0   -1773214.2    4961.6853     17774914 
   24500    500.02071   -1807957.2            0   -1773222.9    4934.5794     17772348 
   24600    500.41122   -1807996.3            0   -1773234.9     5038.911     17769781 
   24700    500.68429   -1808031.1            0   -1773250.8     4986.861     17767215 
   24800    500.14809   -1808010.5            0   -1773267.5    4954.9423     17764648 
   24900    500.35239   -1808045.3            0   -1773288.1     5007.557     17762082 
   25000    499.59438   -1808013.3            0   -1773308.7    4993.0418     17759516 
Loop time of 6036.68 on 8 procs for 20000 steps with 537410 atoms

Performance: 0.573 ns/day, 41.921 hours/ns, 3.313 timesteps/s
78.5% CPU use with 8 MPI tasks x no OpenMP threads

MPI task timing breakdown:
Section |  min time  |  avg time  |  max time  |%varavg| %total
---------------------------------------------------------------
Pair    | 2256.8     | 3609.3     | 4951.3     |2151.6 | 59.79
Neigh   | 260.55     | 426.36     | 600.66     | 798.5 |  7.06
Comm    | 133.52     | 1698.3     | 3260.8     |3651.9 | 28.13
Output  | 7.1329     | 7.3278     | 7.4941     |   6.1 |  0.12
Modify  | 211.94     | 261.96     | 313.98     | 292.8 |  4.34
Other   |            | 33.49      |            |       |  0.55

Nlocal:    67176.2 ave 94270 max 40024 min
Histogram: 4 0 0 0 0 0 0 0 0 4
Nghost:    19843.4 ave 19904 max 19787 min
Histogram: 3 0 0 0 0 1 2 0 1 1
Neighs:    0 ave 0 max 0 min
Histogram: 8 0 0 0 0 0 0 0 0 0
FullNghs:  3.63999e+06 ave 5.11752e+06 max 2.16178e+06 min
Histogram: 4 0 0 0 0 0 0 0 0 4

Total # of neighbors = 29119904
Ave neighs/atom = 54.1856
Neighbor list builds = 2000
Dangerous builds = 1980
Total wall time: 2:06:23
