LAMMPS (17 Nov 2016)
#include "system.in"
#velocity	all create 1 277387 mom yes


#include "system.prepare"

include "system.in.init"
  units         metal
  boundary      p p p
  atom_style    atomic
  pair_style    vashishta
  #pair_modify  mix arithmetic  # LEAVE THIS UNSPECIFIED!
    units		metal
    boundary	p p p
    atom_style   atomic
    pair_style 	 vashishta
    #pair_modify  mix arithmetic  # LEAVE THIS UNSPECIFIED!
read_restart restartFiles/SiO2_initial40000.restart
  orthogonal box = (0 0 0) to (329.36 329.36 193.32)
  4 by 4 by 4 MPI processor grid
  757633 atoms
#read_restart restartFiles/lower/SiO2_lower_180000.restart
include "system.in.settings"
  pair_coeff  * *  SiO2.vashishta Si O
Reading potential file SiO2.vashishta with DATE: 2015-10-14
  pair_modify table 16
  pair_modify tabinner 0.1


variable N equal 160001
variable T equal 293
variable Fz equal 0.0231*(40000-step)/160000


neighbor	0.3 bin
neigh_modify	delay 10

timestep	0.002


# Move sphere down in order to save computation time
region upperHalfR block INF INF INF INF 70.0 INF
group upperHalfG region upperHalfR
351358 atoms in group upperHalfG

displace_atoms upperHalfG      move 0 0 -18.36 #12.82


restart 10000 restartFiles/lower/SiO2_lower_*.restart
#dump dumpID all atom 20000 dumpFiles/lower/SiO2_lower_*.dump


fix nvtID excludeB nvt temp ${T} ${T} 1.0
fix nvtID excludeB nvt temp 293 ${T} 1.0
fix nvtID excludeB nvt temp 293 293 1.0
Resetting global fix info from restart file:
  fix style: nvt, fix ID: nvtID


fix rigidTop sphereUpperG rigid single force 1 off off on torque 1 on on on
1 rigid bodies with 93104 atoms
fix addforce sphereUpperG addforce 0 0 v_Fz

compute comTop sphereUpperG com      #Center of mass
compute tempID excludeBT    temp     #Temperature

thermo 100
thermo_style custom step c_tempID v_Fz c_comTop[3]


balance 1.1 shift xyz 50 1.0
All restart file global fix info was re-assigned
WARNING: One or more atoms are time integrated more than once (../modify.cpp:271)
Neighbor list info ...
  1 neighbor list requests
  update every 1 steps, delay 10 steps, check yes
  max neighbors/atom: 2000, page size: 100000
  master list distance cutoff = 5.8
  ghost atom cutoff = 5.8
  binsize = 2.9 -> bins = 114 114 67
  rebalancing time: 0.143525 seconds
  iteration count = 150
  initial/final max load/proc = 22206 19897
  initial/final imbalance factor = 1.87582 1.68077
  x cuts: 0 0.287026 0.5 0.712622 1
  y cuts: 0 0.286918 0.499957 0.712465 1
  z cuts: 0 0.132699 0.268885 0.622565 1

run ${N}
run 160001
WARNING: One or more atoms are time integrated more than once (../modify.cpp:271)
Memory usage per processor = 12.1456 Mbytes
Step c_tempID v_Fz c_comTop[3] 
   40000    293.13489            0      145.425 
   40100    292.82813 -1.44375e-05    145.43611 
   40200    292.68413  -2.8875e-05    145.46138 
   40300    291.99244 -4.33125e-05    145.49569 
   40400    291.91546   -5.775e-05    145.53361 
   40500    291.13964 -7.21875e-05    145.56514 
   40600    290.77629  -8.6625e-05    145.58354 
   40700    290.51287 -0.0001010625    145.59009 
   40800    291.10065   -0.0001155    145.58338 
   40900    290.78257 -0.0001299375    145.56195 
   41000    291.20041 -0.000144375     145.5326 
   41100    291.90057 -0.0001588125    145.49304 
   41200    292.32703  -0.00017325    145.44602 
   41300    292.30394 -0.0001876875    145.39647 
   41400    292.84952 -0.000202125     145.3448 
   41500    293.23586 -0.0002165625    145.29594 
   41600    293.86204    -0.000231    145.25504 
   41700    293.69648 -0.0002454375    145.22277 
   41800    293.25466 -0.000259875    145.19867 
   41900    293.42447 -0.0002743125    145.18398 
   42000    293.66846  -0.00028875    145.17929 
   42100    293.57579 -0.0003031875    145.18488 
   42200    293.47073 -0.000317625    145.20263 
   42300    293.18121 -0.0003320625    145.22574 
   42400    292.76111   -0.0003465    145.25156 
   42500    292.36163 -0.0003609375    145.27607 
   42600    291.96594 -0.000375375    145.29583 
   42700    291.67767 -0.0003898125     145.3104 
   42800    291.96176  -0.00040425    145.31444 
   42900    291.66005 -0.0004186875    145.30635 
   43000    291.73706 -0.000433125    145.28702 
   43100    291.88583 -0.0004475625    145.25763 
   43200    291.81995    -0.000462    145.22188 
   43300    291.98923 -0.0004764375     145.1824 
   43400    291.92065 -0.000490875    145.13757 
   43500    292.35414 -0.0005053125    145.09494 
   43600    292.79614  -0.00051975    145.05752 
   43700    292.69934 -0.0005341875    145.02588 
   43800    292.99672 -0.000548625    145.00176 
   43900     293.0452 -0.0005630625    144.98152 
   44000    293.49936   -0.0005775    144.96392 
   44100    293.02301 -0.0005919375    144.94879 
   44200    292.85008 -0.000606375    144.93126 
   44300    292.58443 -0.0006208125    144.90711 
   44400    292.49051  -0.00063525    144.87474 
   44500    293.00813 -0.0006496875    144.83602 
   44600    292.41141 -0.000664125    144.78964 
   44700    292.76561 -0.0006785625    144.73681 
   44800    292.61581    -0.000693    144.68209 
   44900    292.94112 -0.0007074375    144.62868 
   45000    292.73835 -0.000721875    144.57705 
   45100    293.17746 -0.0007363125      144.527 
   45200    292.70214  -0.00075075    144.47981 
   45300    292.55774 -0.0007651875    144.43721 
   45400    292.42364 -0.000779625    144.39725 
   45500    292.82614 -0.0007940625    144.35909 
   45600    292.58017   -0.0008085    144.32243 
   45700    292.38089 -0.0008229375    144.28364 
   45800    292.23631 -0.000837375    144.23954 
   45900    291.99329 -0.0008518125    144.18884 
   46000    291.82504  -0.00086625     144.1327 
   46100    291.71771 -0.0008806875    144.06898 
   46200     291.8669 -0.000895125     143.9958 
   46300     291.9525 -0.0009095625    143.91126 
   46400    292.42142    -0.000924    143.81418 
   46500    292.09523 -0.0009384375    143.70552 
   46600     292.3164 -0.000952875    143.58997 
   46700    292.11456 -0.0009673125    143.46628 
   46800    292.26087  -0.00098175    143.33411 
   46900    292.76065 -0.0009961875    143.20243 
   47000     292.9156 -0.001010625    143.07531 
   47100    292.84492 -0.0010250625    142.95513 
   47200    293.03446   -0.0010395    142.84416 
   47300    293.26398 -0.0010539375    142.74303 
   47400    293.19874 -0.001068375     142.6508 
   47500    292.91495 -0.0010828125    142.56472 
   47600    292.60672  -0.00109725    142.48178 
   47700    292.94215 -0.0011116875    142.39532 
   47800    292.48324 -0.001126125    142.30202 
   47900    292.28413 -0.0011405625    142.19834 
   48000    291.40676    -0.001155    142.08337 
   48100    291.69151 -0.0011694375    141.95441 
   48200    291.73705 -0.001183875    141.81263 
   48300    291.08508 -0.0011983125    141.65776 
   48400    291.11392  -0.00121275    141.48952 
   48500    291.98217 -0.0012271875    141.31453 
   48600    291.57459 -0.001241625    141.13378 
   48700    292.07753 -0.0012560625    140.95045 
   48800    291.82552   -0.0012705    140.76663 
   48900    292.08711 -0.0012849375    140.58434 
   49000    292.50409 -0.001299375    140.40848 
   49100    292.26168 -0.0013138125     140.2367 
   49200    292.00039  -0.00132825    140.06724 
   49300    291.82111 -0.0013426875    139.89968 
   49400    291.88798 -0.001357125    139.73875 
   49500    292.21667 -0.0013715625    139.58297 
   49600    291.69595    -0.001386    139.42872 
   49700     291.8355 -0.0014004375    139.26963 
   49800    292.09561 -0.001414875    139.10548 
   49900    291.47153 -0.0014293125    138.93583 
   50000    291.84806  -0.00144375     138.7621 
   50100    291.25888 -0.0014581875    138.58022 
   50200    291.44306 -0.001472625    138.39353 
   50300    291.95522 -0.0014870625    138.20183 
   50400    291.50942   -0.0015015    138.00648 
   50500    291.58184 -0.0015159375    137.80799 
   50600    291.10359 -0.001530375    137.61198 
   50700    291.77284 -0.0015448125    137.41831 
   50800    291.60171  -0.00155925    137.22623 
   50900    291.59614 -0.0015736875     137.0412 
   51000    291.38451 -0.001588125    136.86142 
   51100    291.63924 -0.0016025625    136.68426 
   51200    291.27338    -0.001617    136.50787 
   51300    290.55141 -0.0016314375    136.33171 
   51400     291.0943 -0.001645875    136.15282 
   51500    290.85888 -0.0016603125    135.97346 
   51600    290.86643  -0.00167475     135.7923 
   51700    290.96093 -0.0016891875    135.61076 
   51800    291.07753 -0.001703625    135.43036 
   51900    291.17987 -0.0017180625    135.25339 
   52000    291.20194   -0.0017325    135.08123 
   52100     291.5263 -0.0017469375    134.91681 
   52200    291.81245 -0.001761375    134.76127 
   52300    292.05963 -0.0017758125    134.61563 
   52400    292.45138  -0.00179025    134.47633 
   52500    292.22212 -0.0018046875    134.34711 
   52600    292.84031 -0.001819125    134.23087 
   52700    292.35693 -0.0018335625    134.12245 
   52800    292.65293    -0.001848    134.02005 
   52900    292.59528 -0.0018624375    133.91927 
   53000    292.51371 -0.001876875    133.81941 
   53100    292.09193 -0.0018913125    133.72006 
   53200    292.04688  -0.00190575    133.62258 
   53300    292.50643 -0.0019201875    133.52358 
   53400     292.3458 -0.001934625    133.42354 
   53500    292.34471 -0.0019490625    133.32428 
   53600    292.36668   -0.0019635    133.22725 
   53700    292.31754 -0.0019779375    133.13583 
   53800    292.47955 -0.001992375     133.0517 
   53900    292.49237 -0.0020068125    132.97473 
   54000    292.82983  -0.00202125    132.91094 
   54100    292.75667 -0.0020356875    132.86358 
   54200    292.70289 -0.002050125    132.82973 
   54300    292.19697 -0.0020645625    132.80947 
   54400    292.70902    -0.002079    132.80243 
   54500    292.72981 -0.0020934375    132.80698 
   54600    292.00184 -0.002107875    132.82079 
   54700    292.53445 -0.0021223125    132.84341 
   54800     292.4346  -0.00213675    132.87507 
   54900    292.18391 -0.0021511875     132.9096 
   55000    292.21878 -0.002165625    132.94363 
   55100    292.37025 -0.0021800625    132.97931 
   55200    292.51744   -0.0021945    133.01554 
   55300    292.81608 -0.0022089375    133.04997 
   55400     292.8042 -0.002223375    133.08657 
   55500    292.88482 -0.0022378125    133.12576 
   55600    292.50735  -0.00225225     133.1685 
   55700    292.70828 -0.0022666875    133.21619 
   55800    292.84922 -0.002281125    133.26822 
   55900    292.82667 -0.0022955625    133.32619 
   56000     293.2137     -0.00231     133.3924 
   56100    292.70713 -0.0023244375    133.46692 
   56200    292.30589 -0.002338875     133.5475 
   56300    292.19312 -0.0023533125    133.63034 
   56400     292.1302  -0.00236775    133.71519 
   56500    292.16717 -0.0023821875    133.80385 
   56600    291.94726 -0.002396625    133.89765 
   56700    291.88249 -0.0024110625    133.99001 
   56800    291.86184   -0.0024255    134.08239 
   56900    292.03221 -0.0024399375    134.17416 
   57000     291.8113 -0.002454375    134.26849 
   57100    291.53077 -0.0024688125    134.36554 
   57200    292.09618  -0.00248325     134.4627 
   57300    292.35725 -0.0024976875    134.56106 
   57400     292.3966 -0.002512125    134.66215 
   57500    291.74057 -0.0025265625    134.76524 
   57600    291.92847    -0.002541    134.86706 
   57700    292.05426 -0.0025554375    134.96859 
   57800     292.2816 -0.002569875    135.06723 
   57900    291.85347 -0.0025843125    135.16342 
   58000    291.98507  -0.00259875    135.25603 
   58100    292.15163 -0.0026131875     135.3404 
   58200    292.66464 -0.002627625    135.41507 
   58300    292.02516 -0.0026420625    135.48522 
   58400    291.79101   -0.0026565    135.54955 
   58500    292.55512 -0.0026709375    135.61021 
   58600    292.34106 -0.002685375    135.66804 
   58700    292.43146 -0.0026998125    135.72146 
   58800    292.08165  -0.00271425    135.77297 
   58900    292.86584 -0.0027286875    135.81934 
   59000    292.44875 -0.002743125    135.86593 
   59100    292.60425 -0.0027575625    135.91406 
   59200    292.68564    -0.002772    135.95991 
   59300    292.86541 -0.0027864375    136.00697 
   59400    292.62778 -0.002800875    136.05397 
   59500     293.1672 -0.0028153125      136.099 
   59600    293.03964  -0.00282975    136.14224 
   59700    292.79155 -0.0028441875    136.17778 
   59800    293.13947 -0.002858625    136.20686 
   59900    293.15353 -0.0028730625    136.23038 
   60000    292.75231   -0.0028875    136.24618 
   60100    292.93281 -0.0029019375    136.25371 
   60200    292.81554 -0.002916375     136.2507 
   60300     292.8345 -0.0029308125    136.23483 
   60400    292.63412  -0.00294525    136.20793 
   60500    292.32065 -0.0029596875    136.17211 
   60600    292.71914 -0.002974125    136.13102 
   60700     292.8331 -0.0029885625    136.08398 
   60800    292.50239    -0.003003    136.03201 
   60900    292.31724 -0.0030174375     135.9747 
   61000    292.73425 -0.003031875    135.91709 
   61100    292.83707 -0.0030463125    135.85756 
   61200    292.62566  -0.00306075    135.79603 
   61300    292.54717 -0.0030751875    135.73215 
   61400    292.68346 -0.003089625    135.66597 
   61500    292.64815 -0.0031040625    135.59457 
   61600    292.49739   -0.0031185    135.51875 
   61700    292.61852 -0.0031329375    135.43801 
   61800    292.52091 -0.003147375    135.35272 
   61900    292.30263 -0.0031618125    135.26157 
   62000    292.53154  -0.00317625    135.16681 
   62100    292.83028 -0.0031906875    135.06508 
   62200    292.55634 -0.003205125    134.95642 
   62300    292.17283 -0.0032195625     134.8426 
   62400    292.33468    -0.003234     134.7253 
   62500    292.29404 -0.0032484375    134.60172 
   62600     292.2523 -0.003262875    134.47127 
   62700    292.49732 -0.0032773125    134.34055 
   62800    291.92164  -0.00329175    134.20513 
   62900    292.36967 -0.0033061875    134.06463 
   63000    292.09945 -0.003320625    133.92086 
   63100    291.88334 -0.0033350625     133.7738 
   63200    291.85927   -0.0033495    133.62058 
   63300    291.75039 -0.0033639375    133.46683 
   63400    291.72781 -0.003378375    133.31154 
   63500    291.92961 -0.0033928125    133.15536 
   63600    291.80028  -0.00340725    132.99702 
   63700    291.56063 -0.0034216875    132.83928 
   63800    291.64211 -0.003436125    132.68017 
   63900    292.02555 -0.0034505625    132.52044 
   64000    291.65086    -0.003465    132.36529 
   64100    291.61916 -0.0034794375    132.21343 
   64200    291.82272 -0.003493875    132.06566 
   64300    291.62399 -0.0035083125    131.91978 
   64400    291.57898  -0.00352275    131.77394 
   64500    291.80858 -0.0035371875    131.63393 
   64600    291.54122 -0.003551625    131.50158 
   64700    291.18261 -0.0035660625    131.37115 
   64800    291.63324   -0.0035805    131.24248 
   64900    291.50783 -0.0035949375    131.11737 
   65000    291.41127 -0.003609375    130.99208 
   65100     291.0433 -0.0036238125    130.85922 
   65200    291.39688  -0.00363825    130.72834 
   65300    291.74174 -0.0036526875    130.59808 
   65400    291.97565 -0.003667125    130.47003 
   65500    291.97501 -0.0036815625     130.3423 
   65600    292.22699    -0.003696    130.21792 
   65700    292.37832 -0.0037104375    130.10128 
   65800    292.67266 -0.003724875    129.99299 
   65900    292.92324 -0.0037393125    129.89453 
   66000    292.70301  -0.00375375    129.80111 
   66100    292.44101 -0.0037681875    129.71569 
   66200    293.16256 -0.003782625    129.63884 
   66300    292.49506 -0.0037970625      129.575 
   66400    293.19009   -0.0038115    129.52077 
   66500    292.82509 -0.0038259375    129.47515 
   66600     292.6121 -0.003840375    129.43831 
   66700    292.70463 -0.0038548125    129.40799 
   66800    292.78177  -0.00386925    129.38247 
   66900    292.29644 -0.0038836875    129.36147 
   67000    292.74874 -0.003898125     129.3453 
   67100    292.60417 -0.0039125625    129.33531 
   67200    292.57084    -0.003927    129.33068 
   67300    292.54788 -0.0039414375     129.3321 
   67400    292.74566 -0.003955875    129.33612 
   67500    292.62768 -0.0039703125    129.34508 
   67600     292.4554  -0.00398475     129.3571 
   67700    292.46591 -0.0039991875    129.37556 
   67800    292.75256 -0.004013625    129.39874 
   67900    292.91936 -0.0040280625    129.42784 
   68000    292.48661   -0.0040425    129.46298 
   68100    292.67361 -0.0040569375    129.50557 
   68200    292.38544 -0.004071375    129.55529 
   68300    292.38025 -0.0040858125    129.60948 
   68400    292.17979  -0.00410025    129.66897 
   68500    292.35454 -0.0041146875      129.731 
   68600    292.35309 -0.004129125    129.79872 
   68700    292.22234 -0.0041435625    129.87407 
   68800    292.25605    -0.004158     129.9534 
   68900    292.42835 -0.0041724375    130.03438 
   69000    291.93643 -0.004186875    130.12297 
   69100    292.38154 -0.0042013125    130.21335 
   69200     292.3323  -0.00421575    130.30652 
   69300    291.87848 -0.0042301875    130.40228 
   69400    292.20431 -0.004244625    130.49806 
   69500     292.0048 -0.0042590625    130.59263 
   69600    291.96525   -0.0042735    130.68371 
   69700    292.52462 -0.0042879375    130.77176 
   69800    292.17994 -0.004302375    130.85876 
   69900    292.47524 -0.0043168125    130.94241 
   70000    292.36637  -0.00433125    131.02155 
   70100     292.2259 -0.0043456875    131.09566 
   70200    292.47196 -0.004360125    131.16548 
   70300    292.28943 -0.0043745625    131.23093 
   70400    292.41013    -0.004389    131.29333 
   70500    292.15184 -0.0044034375    131.35474 
   70600    292.52489 -0.004417875    131.41302 
   70700    292.12217 -0.0044323125    131.47153 
   70800     292.7043  -0.00444675    131.53244 
   70900     292.5827 -0.0044611875    131.59285 
   71000     292.4151 -0.004475625    131.64968 
   71100    292.67125 -0.0044900625    131.70037 
   71200    292.25708   -0.0045045    131.74856 
   71300    292.53299 -0.0045189375    131.79357 
   71400    293.00722 -0.004533375    131.83435 
   71500    292.98808 -0.0045478125    131.86959 
   71600    292.71205  -0.00456225    131.89717 
   71700    292.81082 -0.0045766875    131.91793 
   71800    292.81152 -0.004591125    131.93038 
   71900    292.84993 -0.0046055625    131.93428 
   72000    293.38354     -0.00462    131.93156 
   72100    293.00361 -0.0046344375    131.92021 
   72200    292.97989 -0.004648875     131.9029 
   72300    292.95999 -0.0046633125    131.88005 
   72400    292.94726  -0.00467775    131.85119 
   72500    293.05053 -0.0046921875    131.81271 
   72600    292.96656 -0.004706625    131.76644 
   72700    292.87345 -0.0047210625    131.71299 
   72800    293.01395   -0.0047355    131.65429 
   72900    293.15264 -0.0047499375    131.59195 
   73000    292.48293 -0.004764375    131.52455 
   73100    292.73555 -0.0047788125    131.45308 
   73200    292.83275  -0.00479325    131.37861 
   73300    292.46294 -0.0048076875    131.29974 
   73400    292.69735 -0.004822125    131.21941 
   73500     292.7746 -0.0048365625    131.13523 
   73600    292.57825    -0.004851    131.04638 
   73700      292.563 -0.0048654375    130.95339 
   73800    292.57327 -0.004879875    130.85894 
   73900    292.43272 -0.0048943125    130.76012 
   74000    292.86987  -0.00490875    130.65584 
   74100     292.4474 -0.0049231875    130.54845 
   74200    292.28526 -0.004937625    130.43707 
   74300    292.25911 -0.0049520625    130.31958 
   74400     292.1202   -0.0049665    130.19552 
   74500    292.00525 -0.0049809375    130.06985 
   74600    291.82216 -0.004995375     129.9413 
   74700    292.30945 -0.0050098125    129.80881 
   74800    292.17918  -0.00502425    129.67419 
   74900     291.7683 -0.0050386875    129.53654 
   75000    291.66771 -0.005053125    129.39987 
   75100    291.82252 -0.0050675625    129.26478 
   75200    291.69942    -0.005082     129.1281 
   75300    291.89647 -0.0050964375    128.99271 
   75400    291.67592 -0.005110875    128.85919 
   75500    291.50399 -0.0051253125    128.72968 
   75600    292.00133  -0.00513975    128.60684 
   75700    291.63094 -0.0051541875     128.4858 
   75800    291.57237 -0.005168625    128.36717 
   75900    291.75131 -0.0051830625    128.25612 
   76000    291.28374   -0.0051975    128.14906 
   76100      291.696 -0.0052119375    128.04774 
   76200    292.19887 -0.005226375    127.94989 
   76300    291.86976 -0.0052408125    127.85447 
   76400    292.16593  -0.00525525    127.76374 
   76500    292.21191 -0.0052696875    127.67581 
   76600    292.48739 -0.005284125    127.58904 
   76700    291.78189 -0.0052985625    127.50693 
   76800     292.3631    -0.005313    127.43006 
   76900    292.39134 -0.0053274375    127.35477 
   77000     292.4568 -0.005341875    127.28185 
   77100     292.7439 -0.0053563125    127.21571 
   77200    292.72738  -0.00537075    127.15808 
   77300    292.69519 -0.0053851875    127.10609 
   77400    292.65846 -0.005399625    127.05772 
   77500    292.92282 -0.0054140625    127.01325 
   77600    292.96755   -0.0054285    126.97532 
   77700    293.01636 -0.0054429375     126.9469 
   77800    293.18935 -0.005457375    126.93021 
   77900    293.30159 -0.0054718125    126.92255 
   78000    292.94712  -0.00548625    126.92321 
   78100     292.9112 -0.0055006875    126.92987 
   78200    292.89326 -0.005515125    126.94341 
   78300    292.81569 -0.0055295625    126.96322 
   78400    292.69311    -0.005544    126.99072 
   78500    292.30926 -0.0055584375    127.02344 
   78600    292.49314 -0.005572875    127.05917 
   78700    292.63729 -0.0055873125    127.09966 
   78800    292.62016  -0.00560175    127.14539 
   78900     292.4092 -0.0056161875    127.19475 
   79000    292.14937 -0.005630625    127.24847 
   79100    292.55871 -0.0056450625    127.30398 
   79200    292.24425   -0.0056595    127.36055 
   79300    292.25368 -0.0056739375    127.41854 
   79400    292.09547 -0.005688375    127.48135 
   79500    292.21893 -0.0057028125    127.54397 
   79600    292.34758  -0.00571725    127.60618 
   79700    292.40381 -0.0057316875    127.67254 
   79800    292.04467 -0.005746125    127.74019 
   79900    291.88794 -0.0057605625    127.80815 
   80000     291.8664    -0.005775     127.8792 
   80100    292.23278 -0.0057894375    127.95528 
   80200    291.59337 -0.005803875     128.0323 
   80300    291.82455 -0.0058183125    128.11128 
   80400    291.85191  -0.00583275    128.19197 
   80500    292.00606 -0.0058471875     128.2746 
   80600    292.33726 -0.005861625    128.35599 
   80700    292.45955 -0.0058760625      128.437 
   80800    292.30751   -0.0058905    128.51429 
   80900    292.15682 -0.0059049375    128.58894 
   81000    292.37426 -0.005919375    128.65995 
   81100     292.5386 -0.0059338125    128.72817 
   81200     292.5342  -0.00594825    128.79308 
   81300    292.47288 -0.0059626875    128.85391 
   81400    292.89904 -0.005977125     128.9085 
   81500    292.58723 -0.0059915625    128.95455 
   81600    292.84357    -0.006006    128.99402 
   81700    293.13668 -0.0060204375    129.02561 
   81800    292.90708 -0.006034875    129.04937 
   81900    292.81237 -0.0060493125    129.07209 
   82000     293.0791  -0.00606375    129.08877 
   82100    293.13175 -0.0060781875    129.10037 
   82200    292.88099 -0.006092625    129.10824 
   82300    292.67806 -0.0061070625    129.11132 
   82400    292.79314   -0.0061215    129.11225 
   82500    293.05792 -0.0061359375    129.10721 
   82600    292.73764 -0.006150375     129.0981 
   82700    292.54527 -0.0061648125    129.08434 
   82800    292.30476  -0.00617925    129.06824 
   82900    292.57959 -0.0061936875    129.04821 
   83000    293.03411 -0.006208125    129.02238 
   83100    292.79192 -0.0062225625    128.98762 
   83200    292.73168    -0.006237    128.94332 
   83300    292.27085 -0.0062514375    128.89124 
   83400    292.53324 -0.006265875    128.83339 
   83500    293.17674 -0.0062803125    128.77047 
   83600    292.71506  -0.00629475    128.70152 
   83700    292.78415 -0.0063091875    128.62618 
   83800    292.72758 -0.006323625    128.54527 
   83900    292.87388 -0.0063380625    128.45848 
   84000     292.6054   -0.0063525    128.36579 
   84100    292.77937 -0.0063669375    128.26715 
   84200     292.3051 -0.006381375    128.16364 
   84300    292.49528 -0.0063958125     128.0581 
   84400    292.59303  -0.00641025     127.9502 
   84500    292.71426 -0.0064246875    127.83633 
   84600    292.72032 -0.006439125    127.71964 
   84700    292.05805 -0.0064535625    127.60149 
   84800    291.96978    -0.006468    127.48226 
   84900     292.1436 -0.0064824375    127.36238 
   85000    292.18765 -0.006496875     127.2416 
   85100    291.86537 -0.0065113125    127.12484 
   85200    292.18234  -0.00652575     127.0106 
   85300    292.24912 -0.0065401875      126.897 
   85400    291.97996 -0.006554625    126.78313 
   85500    291.94823 -0.0065690625    126.66974 
   85600    291.95929   -0.0065835    126.55539 
   85700    291.95319 -0.0065979375    126.43897 
   85800     292.0112 -0.006612375    126.32594 
   85900    291.60135 -0.0066268125    126.21437 
   86000    292.04676  -0.00664125    126.10123 
   86100    291.75431 -0.0066556875    125.99105 
   86200    291.30335 -0.006670125    125.88039 
   86300     292.0738 -0.0066845625    125.77098 
   86400    291.80432    -0.006699    125.66443 
   86500    291.66049 -0.0067134375    125.56042 
   86600    291.90293 -0.006727875    125.46052 
   86700    292.02082 -0.0067423125    125.36828 
   86800    292.19119  -0.00675675    125.28134 
   86900    292.45986 -0.0067711875     125.2015 
   87000    292.30727 -0.006785625     125.1287 
   87100    292.29955 -0.0068000625    125.06674 
   87200    292.41319   -0.0068145    125.01162 
   87300    292.37707 -0.0068289375    124.96437 
   87400    292.51057 -0.006843375    124.92552 
   87500    292.46949 -0.0068578125    124.89266 
   87600     292.9241  -0.00687225    124.86724 
   87700     292.8456 -0.0068866875    124.84787 
   87800    293.17448 -0.006901125    124.83604 
   87900    292.92394 -0.0069155625    124.82893 
   88000    293.09203     -0.00693    124.82496 
   88100    292.76321 -0.0069444375    124.82475 
   88200    293.10464 -0.006958875    124.82938 
   88300    293.12825 -0.0069733125    124.83661 
   88400    292.87764  -0.00698775    124.84928 
   88500    292.88159 -0.0070021875    124.86714 
   88600    292.70966 -0.007016625    124.89072 
   88700    292.71487 -0.0070310625    124.91919 
   88800    292.75961   -0.0070455    124.95165 
   88900    292.78117 -0.0070599375    124.99027 
   89000     292.5391 -0.007074375    125.03442 
   89100    292.38481 -0.0070888125    125.08457 
   89200    292.09816  -0.00710325    125.14041 
   89300    292.44502 -0.0071176875    125.20142 
   89400    292.35792 -0.007132125    125.26587 
   89500    292.31709 -0.0071465625    125.33173 
   89600    291.50996    -0.007161    125.40056 
   89700    291.82236 -0.0071754375    125.47149 
   89800    291.84921 -0.007189875    125.54628 
   89900    291.73244 -0.0072043125    125.62286 
   90000     291.8993  -0.00721875        125.7 
   90100    292.14393 -0.0072331875     125.7744 
   90200    292.15986 -0.007247625    125.84857 
   90300    291.90343 -0.0072620625    125.91898 
   90400    292.26434   -0.0072765    125.98576 
   90500    291.99902 -0.0072909375    126.05154 
   90600    292.51113 -0.007305375    126.11277 
   90700    292.48048 -0.0073198125    126.17167 
   90800    292.42446  -0.00733425    126.22822 
   90900    292.82453 -0.0073486875      126.282 
   91000    292.78139 -0.007363125     126.3339 
   91100    292.83404 -0.0073775625    126.38297 
   91200    292.82528    -0.007392    126.43038 
   91300    292.57063 -0.0074064375    126.47498 
   91400    292.75958 -0.007420875    126.51748 
   91500    292.87023 -0.0074353125    126.55645 
   91600    292.85813  -0.00744975    126.59155 
   91700    292.69679 -0.0074641875    126.62275 
   91800    292.67059 -0.007478625    126.65154 
   91900    292.70651 -0.0074930625    126.67657 
   92000    292.55723   -0.0075075    126.69653 
   92100    292.74932 -0.0075219375    126.71186 
   92200    292.79363 -0.007536375      126.721 
   92300    292.77308 -0.0075508125    126.72587 
   92400    292.45455  -0.00756525    126.72321 
   92500    292.65832 -0.0075796875    126.71257 
   92600    292.73045 -0.007594125    126.69568 
   92700    292.51437 -0.0076085625    126.67043 
   92800    292.69646    -0.007623    126.63821 
   92900     292.4202 -0.0076374375    126.59746 
   93000    292.99257 -0.007651875    126.55102 
   93100    292.73208 -0.0076663125    126.50158 
   93200     292.6015  -0.00768075    126.44744 
   93300    292.78102 -0.0076951875    126.38854 
   93400    292.85926 -0.007709625    126.32416 
   93500    292.71552 -0.0077240625    126.25492 
   93600    292.81733   -0.0077385    126.18423 
   93700     292.4941 -0.0077529375    126.10944 
   93800    292.69727 -0.007767375    126.02861 
   93900    292.46658 -0.0077818125    125.94628 
   94000    292.67492  -0.00779625    125.86261 
   94100     292.2805 -0.0078106875    125.77791 
   94200    292.54004 -0.007825125    125.69031 
   94300    292.46508 -0.0078395625     125.6017 
   94400    292.34385    -0.007854    125.50914 
   94500    292.49955 -0.0078684375     125.4131 
   94600    292.65977 -0.007882875    125.31273 
   94700    292.52351 -0.0078973125    125.20897 
   94800     292.0854  -0.00791175    125.10373 
   94900    292.47696 -0.0079261875    124.99707 
   95000    292.47453 -0.007940625    124.89269 
   95100    291.92131 -0.0079550625    124.78946 
   95200    292.25017   -0.0079695    124.68538 
   95300    291.86349 -0.0079839375    124.58077 
   95400    292.35736 -0.007998375    124.47603 
   95500    291.77545 -0.0080128125    124.37285 
   95600    291.68138  -0.00802725    124.27176 
   95700    291.84622 -0.0080416875     124.1727 
   95800    291.79607 -0.008056125     124.0793 
   95900    291.70825 -0.0080705625     123.9919 
   96000    291.80723    -0.008085    123.90995 
   96100    291.72015 -0.0080994375    123.83393 
   96200    291.72546 -0.008113875    123.76318 
   96300    291.88419 -0.0081283125    123.69467 
   96400    291.86027  -0.00814275    123.62817 
   96500    292.12461 -0.0081571875    123.56853 
   96600    292.10433 -0.008171625    123.51588 
   96700    292.65213 -0.0081860625    123.46818 
   96800    292.29279   -0.0082005    123.42449 
   96900     292.6148 -0.0082149375    123.38805 
   97000    292.62101 -0.008229375    123.35469 
   97100    292.83264 -0.0082438125     123.3251 
   97200    292.95233  -0.00825825    123.29971 
   97300    293.05064 -0.0082726875    123.28051 
   97400    293.05374 -0.008287125    123.26517 
   97500    292.92405 -0.0083015625    123.25416 
   97600    292.95337    -0.008316    123.25015 
   97700    292.87995 -0.0083304375    123.25096 
   97800    292.81661 -0.008344875    123.25817 
   97900    293.15822 -0.0083593125    123.27347 
   98000    293.03777  -0.00837375    123.29421 
   98100    292.73144 -0.0083881875    123.32004 
   98200    292.88321 -0.008402625    123.35179 
   98300    292.80586 -0.0084170625    123.38808 
   98400    292.16502   -0.0084315    123.42901 
   98500    292.17146 -0.0084459375    123.47192 
   98600    292.10216 -0.008460375     123.5188 
   98700    291.97637 -0.0084748125    123.57001 
   98800    292.49765  -0.00848925    123.62453 
   98900    292.43041 -0.0085036875    123.67956 
   99000    292.17094 -0.008518125    123.73801 
   99100     292.0027 -0.0085325625    123.79727 
   99200    292.06453    -0.008547     123.8568 
   99300    291.78561 -0.0085614375    123.91582 
   99400    292.08319 -0.008575875    123.97223 
   99500    292.11422 -0.0085903125    124.02635 
   99600     292.0811  -0.00860475    124.08036 
   99700    292.14043 -0.0086191875    124.13274 
   99800    292.34543 -0.008633625    124.18377 
   99900    292.22801 -0.0086480625    124.23483 
  100000    292.48826   -0.0086625    124.28589 
  100100    292.31143 -0.0086769375    124.33455 
  100200    292.57982 -0.008691375    124.38057 
  100300    292.53979 -0.0087058125     124.4257 
  100400    292.42617  -0.00872025     124.4707 
  100500    292.15515 -0.0087346875    124.51034 
  100600     292.5455 -0.008749125     124.5479 
  100700    293.01017 -0.0087635625    124.58092 
  100800    292.73495    -0.008778    124.61132 
  100900    293.11842 -0.0087924375     124.6369 
  101000    292.72655 -0.008806875    124.65843 
  101100    292.53443 -0.0088213125    124.67638 
  101200     293.0216  -0.00883575    124.68986 
  101300    293.08244 -0.0088501875    124.69943 
  101400    292.60989 -0.008864625    124.70228 
  101500    292.88579 -0.0088790625    124.69512 
  101600    292.88714   -0.0088935    124.68059 
  101700    292.77391 -0.0089079375    124.66149 
  101800    293.27032 -0.008922375    124.63756 
  101900     292.8743 -0.0089368125    124.61171 
  102000    292.70256  -0.00895125    124.57972 
  102100    292.18357 -0.0089656875    124.54254 
  102200    292.55231 -0.008980125     124.4984 
  102300    292.53633 -0.0089945625     124.4515 
  102400    292.59418    -0.009009     124.4011 
  102500    292.78674 -0.0090234375    124.35041 
  102600    292.64991 -0.009037875    124.29775 
  102700    292.45401 -0.0090523125    124.24265 
  102800     292.5801  -0.00906675    124.18295 
  102900    292.69623 -0.0090811875     124.1183 
  103000    292.56886 -0.009095625    124.04823 
  103100    292.42636 -0.0091100625    123.97586 
  103200    292.33873   -0.0091245    123.90125 
  103300    292.49896 -0.0091389375    123.82575 
  103400    292.94346 -0.009153375    123.74712 
  103500    292.24582 -0.0091678125    123.66524 
  103600    292.72075  -0.00918225    123.58181 
  103700    292.54324 -0.0091966875    123.49818 
  103800    292.36995 -0.009211125    123.41414 
  103900    292.41708 -0.0092255625    123.32608 
  104000    292.14314     -0.00924    123.23654 
  104100      292.347 -0.0092544375    123.15038 
  104200    292.40481 -0.009268875    123.06717 
  104300    292.43429 -0.0092833125    122.98364 
  104400     292.4343  -0.00929775    122.89931 
  104500    292.17183 -0.0093121875    122.81851 
  104600    292.00579 -0.009326625     122.7405 
  104700    292.18239 -0.0093410625    122.66782 
  104800    291.90677   -0.0093555    122.60145 
  104900    292.70906 -0.0093699375    122.53786 
  105000    292.19262 -0.009384375    122.47721 
  105100     292.2172 -0.0093988125    122.42071 
  105200    292.24747  -0.00941325    122.36665 
  105300    292.34751 -0.0094276875    122.31522 
  105400    292.07393 -0.009442125     122.2677 
  105500    292.63139 -0.0094565625    122.22511 
  105600    292.64083    -0.009471    122.18833 
  105700    292.48658 -0.0094854375    122.15534 
  105800    292.93492 -0.009499875    122.12581 
  105900    292.70837 -0.0095143125    122.10392 
  106000    292.46819  -0.00952875    122.08913 
  106100    292.83289 -0.0095431875    122.07821 
  106200     292.5525 -0.009557625    122.06936 
  106300    292.65869 -0.0095720625     122.0668 
  106400    292.75329   -0.0095865    122.06966 
  106500    292.71204 -0.0096009375    122.07648 
  106600    292.73836 -0.009615375    122.08466 
  106700    292.79416 -0.0096298125    122.09681 
  106800    292.63445  -0.00964425    122.11419 
  106900    292.81482 -0.0096586875     122.1386 
  107000    292.87769 -0.009673125    122.16897 
  107100     292.6336 -0.0096875625    122.20574 
  107200    292.69312    -0.009702    122.24389 
  107300    292.18764 -0.0097164375    122.28613 
  107400    292.60272 -0.009730875    122.33355 
  107500    292.17029 -0.0097453125    122.38149 
  107600    292.32603  -0.00975975    122.43069 
  107700     292.3188 -0.0097741875    122.47914 
  107800    292.34638 -0.009788625    122.52905 
  107900    292.03431 -0.0098030625    122.57945 
  108000     292.0547   -0.0098175    122.63061 
  108100    292.42122 -0.0098319375    122.68053 
  108200    292.32506 -0.009846375    122.72882 
  108300    292.43958 -0.0098608125    122.77473 
  108400    292.43531  -0.00987525    122.81887 
  108500    292.61958 -0.0098896875    122.86416 
  108600    292.61022 -0.009904125     122.9097 
  108700    292.33444 -0.0099185625     122.9517 
  108800    292.52273    -0.009933    122.98979 
  108900    292.70147 -0.0099474375    123.02332 
  109000    292.25976 -0.009961875    123.05366 
  109100    291.94751 -0.0099763125    123.08497 
  109200    292.31766  -0.00999075    123.11275 
  109300    292.09578 -0.010005188    123.13879 
  109400    292.32377 -0.010019625    123.16233 
  109500    292.61327 -0.010034062    123.18223 
  109600    292.28642   -0.0100485    123.19602 
  109700    292.40411 -0.010062937     123.2052 
  109800    292.48993 -0.010077375    123.20815 
  109900    292.70947 -0.010091812    123.20295 
  110000    292.91451  -0.01010625    123.19111 
  110100    292.77879 -0.010120687    123.17378 
  110200    292.79099 -0.010135125    123.15273 
  110300    292.74704 -0.010149562    123.12852 
  110400    292.71306    -0.010164    123.09959 
  110500    293.07838 -0.010178437      123.067 
  110600    293.23949 -0.010192875    123.02803 
  110700    292.74508 -0.010207312    122.98416 
  110800    292.57295  -0.01022175    122.93461 
  110900    292.54077 -0.010236188    122.88232 
  111000    292.59083 -0.010250625    122.82595 
  111100    292.49763 -0.010265062    122.76306 
  111200    292.49878   -0.0102795    122.69636 
  111300    292.74275 -0.010293937    122.62804 
  111400    292.46688 -0.010308375    122.55846 
  111500    292.60737 -0.010322812    122.48584 
  111600    292.72054  -0.01033725    122.41285 
  111700    292.69373 -0.010351687    122.33825 
  111800    292.99287 -0.010366125    122.26322 
  111900    292.99379 -0.010380562    122.19032 
  112000    292.63999    -0.010395    122.11605 
  112100    292.68645 -0.010409438    122.03947 
  112200    293.23722 -0.010423875    121.96043 
  112300     293.2336 -0.010438312    121.88031 
  112400    292.67147  -0.01045275    121.79926 
  112500    292.62024 -0.010467188    121.71907 
  112600    292.41696 -0.010481625    121.63927 
  112700     292.4952 -0.010496063    121.56116 
  112800    292.63038   -0.0105105    121.48283 
  112900    292.58371 -0.010524937    121.40965 
  113000    292.62502 -0.010539375    121.34118 
  113100    292.21495 -0.010553812    121.27845 
  113200    292.12571  -0.01056825    121.21966 
  113300    292.41496 -0.010582688    121.16474 
  113400    292.75237 -0.010597125    121.11297 
  113500    292.24003 -0.010611562     121.0663 
  113600    292.06271    -0.010626    121.02396 
  113700    292.49864 -0.010640438    120.98768 
  113800    291.99496 -0.010654875    120.95691 
  113900    292.37008 -0.010669312    120.93108 
  114000    292.68323  -0.01068375    120.90878 
  114100    292.79289 -0.010698187     120.8894 
  114200     292.5911 -0.010712625    120.87606 
  114300    292.25838 -0.010727062    120.86709 
  114400    292.31546   -0.0107415    120.86103 
  114500    292.55743 -0.010755937    120.86145 
  114600    292.95474 -0.010770375    120.86615 
  114700    293.04937 -0.010784812    120.87322 
  114800    293.34225  -0.01079925     120.8868 
  114900    293.03748 -0.010813687    120.90553 
  115000    292.73574 -0.010828125    120.92449 
  115100    293.03078 -0.010842562    120.94734 
  115200    293.25142    -0.010857    120.97583 
  115300     292.3003 -0.010871437    121.00921 
  115400    292.50379 -0.010885875     121.0461 
  115500    292.63426 -0.010900313    121.08558 
  115600    292.68952  -0.01091475     121.1273 
  115700    292.43944 -0.010929187    121.17098 
  115800    292.55486 -0.010943625     121.2154 
  115900     292.4399 -0.010958062    121.26177 
  116000     292.3632   -0.0109725    121.30885 
  116100    292.25991 -0.010986937     121.3565 
  116200    292.62179 -0.011001375    121.40371 
  116300    292.51727 -0.011015812    121.45302 
  116400    292.31505  -0.01103025    121.49977 
  116500    292.55799 -0.011044687    121.54616 
  116600    292.19115 -0.011059125    121.59042 
  116700    291.97109 -0.011073563    121.63204 
  116800    292.55117    -0.011088    121.67242 
  116900    292.85979 -0.011102437    121.70742 
  117000    292.31534 -0.011116875    121.73756 
  117100    292.64524 -0.011131313    121.76494 
  117200    292.45668  -0.01114575    121.78766 
  117300    291.99239 -0.011160187    121.80799 
  117400     292.7325 -0.011174625    121.82609 
  117500    292.54893 -0.011189062     121.8408 
  117600    292.67276   -0.0112035    121.85258 
  117700    292.67985 -0.011217937    121.85952 
  117800    293.18409 -0.011232375    121.86413 
  117900    292.64571 -0.011246812    121.86328 
  118000    292.58967  -0.01126125    121.85711 
  118100    292.84942 -0.011275687    121.84571 
  118200    292.80283 -0.011290125    121.82919 
  118300    292.95681 -0.011304563    121.80796 
  118400    292.85159    -0.011319     121.7835 
  118500     293.0462 -0.011333437    121.75669 
  118600    292.60187 -0.011347875    121.72487 
  118700    292.60301 -0.011362313    121.68596 
  118800    292.92707  -0.01137675    121.64081 
  118900    292.54528 -0.011391188    121.58972 
  119000    292.60583 -0.011405625    121.53669 
  119100    292.53144 -0.011420062    121.47879 
  119200    292.87133   -0.0114345    121.41469 
  119300    292.92283 -0.011448937    121.34917 
  119400    292.80513 -0.011463375    121.28108 
  119500    292.54978 -0.011477812    121.21235 
  119600    292.41117  -0.01149225    121.14035 
  119700    292.72883 -0.011506687    121.06971 
  119800     292.8906 -0.011521125    121.00139 
  119900    292.54206 -0.011535562    120.93203 
  120000    292.91419     -0.01155    120.86134 
  120100     292.8083 -0.011564438     120.7889 
  120200    292.85173 -0.011578875    120.71586 
  120300    292.52779 -0.011593312    120.64286 
  120400    292.79715  -0.01160775    120.57157 
  120500    292.63788 -0.011622188    120.50128 
  120600    292.93194 -0.011636625    120.43226 
  120700    292.84197 -0.011651062    120.36352 
  120800    292.29667   -0.0116655    120.29824 
  120900    292.58475 -0.011679937    120.23706 
  121000    292.74618 -0.011694375    120.17863 
  121100    292.10087 -0.011708812    120.12103 
  121200    292.71654  -0.01172325    120.06647 
  121300    292.10186 -0.011737687    120.01708 
  121400    292.51628 -0.011752125     119.9723 
  121500    292.29804 -0.011766562    119.93186 
  121600    291.68686    -0.011781    119.89626 
  121700    292.27594 -0.011795438    119.86333 
  121800    292.19007 -0.011809875    119.83369 
  121900    292.56542 -0.011824312    119.81181 
  122000    292.42985  -0.01183875    119.79604 
  122100    292.41599 -0.011853187    119.78619 
  122200    292.06167 -0.011867625    119.78172 
  122300    292.40256 -0.011882062    119.78222 
  122400    292.73982   -0.0118965     119.7842 
  122500    292.91369 -0.011910937    119.78977 
  122600    292.95525 -0.011925375    119.79988 
  122700    292.42537 -0.011939812    119.81635 
  122800    292.87445  -0.01195425    119.83678 
  122900    292.82484 -0.011968688    119.86049 
  123000    292.62336 -0.011983125    119.88944 
  123100    292.75336 -0.011997562    119.91731 
  123200    292.83079    -0.012012    119.94849 
  123300    292.77934 -0.012026438    119.98194 
  123400    292.84961 -0.012040875    120.01862 
  123500    292.48933 -0.012055313    120.05872 
  123600    292.60515  -0.01206975    120.10005 
  123700    292.44203 -0.012084187    120.14142 
  123800    292.53818 -0.012098625    120.18518 
  123900    292.61311 -0.012113062    120.22979 
  124000    292.51501   -0.0121275    120.27352 
  124100    292.43296 -0.012141937    120.31835 
  124200    292.55518 -0.012156375    120.36094 
  124300    292.29702 -0.012170812    120.40261 
  124400    292.21039  -0.01218525    120.44429 
  124500    292.67515 -0.012199687    120.48451 
  124600     292.3174 -0.012214125    120.52204 
  124700    292.56206 -0.012228562    120.55744 
  124800    292.93602    -0.012243    120.59222 
  124900    292.08827 -0.012257437    120.62456 
  125000     292.2171 -0.012271875    120.65084 
  125100    292.32285 -0.012286313    120.67289 
  125200    292.64198  -0.01230075    120.69037 
  125300    292.72185 -0.012315187    120.70343 
  125400    292.05944 -0.012329625    120.71301 
  125500    292.47244 -0.012344062    120.71927 
  125600    292.83321   -0.0123585    120.71679 
  125700     292.7363 -0.012372937     120.7079 
  125800    293.15391 -0.012387375    120.69612 
  125900    293.06556 -0.012401812    120.68318 
  126000    292.60552  -0.01241625    120.66492 
  126100    293.03713 -0.012430687    120.64364 
  126200    292.90968 -0.012445125    120.61869 
  126300    293.05133 -0.012459563    120.58933 
  126400    292.92594    -0.012474    120.55564 
  126500    293.02388 -0.012488437    120.51912 
  126600     292.8271 -0.012502875     120.4776 
  126700    292.87968 -0.012517313    120.42955 
  126800    292.68157  -0.01253175    120.37984 
  126900    292.62292 -0.012546188     120.3284 
  127000    292.73728 -0.012560625    120.27188 
  127100    292.54166 -0.012575062    120.20995 
  127200    293.06674   -0.0125895    120.14522 
  127300    293.16172 -0.012603937    120.07755 
  127400    293.10603 -0.012618375    120.00799 
  127500    293.00998 -0.012632812    119.93965 
  127600    292.76338  -0.01264725    119.87212 
  127700    292.77281 -0.012661687    119.80513 
  127800    292.66109 -0.012676125    119.73582 
  127900    292.88175 -0.012690563    119.66667 
  128000    292.71368    -0.012705    119.59548 
  128100    292.85043 -0.012719437    119.52552 
  128200    292.76536 -0.012733875    119.45814 
  128300    292.91536 -0.012748313    119.39206 
  128400    292.67786  -0.01276275    119.32586 
  128500    292.58072 -0.012777187    119.26278 
  128600    292.72001 -0.012791625      119.202 
  128700    292.63013 -0.012806062    119.14809 
  128800    292.74098   -0.0128205    119.09782 
  128900    292.35942 -0.012834937    119.04987 
  129000    292.25606 -0.012849375    119.00546 
  129100    292.57502 -0.012863813    118.96417 
  129200    292.46074  -0.01287825    118.92834 
  129300    292.45432 -0.012892687    118.89672 
  129400     292.8691 -0.012907125    118.86835 
  129500    292.40272 -0.012921562    118.84472 
  129600    292.05768    -0.012936    118.82665 
  129700    292.89054 -0.012950437    118.81355 
  129800    292.30585 -0.012964875    118.80528 
  129900    292.35169 -0.012979312    118.79868 
  130000    292.13553  -0.01299375    118.79815 
  130100    292.69309 -0.013008187    118.79983 
  130200    292.62851 -0.013022625    118.80811 
  130300    292.87257 -0.013037062    118.82081 
  130400    292.89622   -0.0130515    118.83855 
  130500    293.40974 -0.013065937    118.86025 
  130600    293.24567 -0.013080375    118.88804 
  130700     293.0615 -0.013094813    118.91834 
  130800    293.05707  -0.01310925    118.94947 
  130900    292.95492 -0.013123687    118.98665 
  131000    293.09916 -0.013138125    119.02721 
  131100    292.82869 -0.013152562    119.06808 
  131200    292.82099    -0.013167    119.10915 
  131300    292.75619 -0.013181437    119.15348 
  131400    292.62905 -0.013195875    119.19899 
  131500     292.5515 -0.013210312    119.24076 
  131600    292.45821  -0.01322475    119.28157 
  131700    293.01372 -0.013239187    119.32301 
  131800    292.42508 -0.013253625    119.36376 
  131900    292.53053 -0.013268062    119.40398 
  132000    292.35809   -0.0132825    119.44262 
  132100    292.43152 -0.013296937    119.47859 
  132200    291.98513 -0.013311375     119.5124 
  132300    292.18992 -0.013325813     119.5444 
  132400    292.32684  -0.01334025    119.57571 
  132500    292.47402 -0.013354688    119.60296 
  132600     292.4311 -0.013369125    119.62847 
  132700    292.48008 -0.013383562    119.65004 
  132800    292.42338    -0.013398    119.66642 
  132900    292.31747 -0.013412437    119.67895 
  133000    292.59171 -0.013426875    119.68632 
  133100    292.49969 -0.013441313    119.68944 
  133200    292.75439  -0.01345575    119.68947 
  133300    292.65789 -0.013470187    119.68518 
  133400    292.64734 -0.013484625    119.67675 
  133500    292.48573 -0.013499062     119.6628 
  133600    292.84066   -0.0135135    119.64358 
  133700    292.33688 -0.013527937    119.61675 
  133800    292.45064 -0.013542375    119.58545 
  133900    292.90077 -0.013556812    119.55013 
  134000    292.42466  -0.01357125    119.51142 
  134100    292.31474 -0.013585688    119.46794 
  134200    293.08949 -0.013600125    119.42176 
  134300      292.756 -0.013614562    119.37397 
  134400    292.89589    -0.013629    119.32328 
  134500    292.82175 -0.013643437    119.26743 
  134600    292.54119 -0.013657875    119.20861 
  134700    292.85255 -0.013672312    119.14829 
  134800      292.877  -0.01368675    119.08557 
  134900    292.77872 -0.013701187     119.0211 
  135000    293.14578 -0.013715625    118.95405 
  135100    292.48892 -0.013730062    118.88685 
  135200    292.69803   -0.0137445    118.81924 
  135300    292.89301 -0.013758937    118.75266 
  135400    292.78746 -0.013773375    118.68499 
  135500    292.79854 -0.013787812    118.61721 
  135600    292.59828  -0.01380225    118.55116 
  135700    292.24117 -0.013816688    118.48801 
  135800    292.22346 -0.013831125    118.42621 
  135900    292.93734 -0.013845563    118.36441 
  136000    292.54152     -0.01386    118.30532 
  136100    292.62565 -0.013874437    118.25033 
  136200    292.43531 -0.013888875    118.19729 
  136300    292.56824 -0.013903312     118.1493 
  136400    292.69619  -0.01391775    118.10407 
  136500    292.43791 -0.013932188    118.06302 
  136600    292.60441 -0.013946625    118.02467 
  136700    292.46679 -0.013961062    117.99166 
  136800    291.95455   -0.0139755    117.96641 
  136900    292.09721 -0.013989937    117.94552 
  137000    292.35119 -0.014004375    117.92886 
  137100    292.51512 -0.014018812    117.91588 
  137200    292.58661  -0.01403325    117.90675 
  137300    292.22632 -0.014047688    117.90376 
  137400    292.43376 -0.014062125    117.90813 
  137500    292.52736 -0.014076563     117.9183 
  137600    292.49007    -0.014091    117.93113 
  137700    292.81878 -0.014105437    117.94527 
  137800    292.83906 -0.014119875    117.95956 
  137900    292.91066 -0.014134312    117.98009 
  138000    292.58976  -0.01414875    118.00431 
  138100    293.18806 -0.014163188    118.03374 
  138200    292.48417 -0.014177625    118.06811 
  138300    293.05143 -0.014192062    118.10249 
  138400    293.23375   -0.0142065    118.13887 
  138500    292.78553 -0.014220937    118.17621 
  138600    292.62944 -0.014235375    118.21796 
  138700    292.90083 -0.014249812    118.25962 
  138800    292.57042  -0.01426425    118.30065 
  138900    292.52721 -0.014278687    118.34087 
  139000    292.36611 -0.014293125    118.38153 
  139100    292.14103 -0.014307563    118.42035 
  139200    292.42859    -0.014322    118.45728 
  139300     292.4003 -0.014336438    118.49383 
  139400      292.384 -0.014350875    118.53013 
  139500    292.37655 -0.014365312    118.56488 
  139600    292.21915  -0.01437975      118.599 
  139700    292.30529 -0.014394187    118.62962 
  139800    292.14721 -0.014408625    118.65471 
  139900    292.19967 -0.014423063    118.67491 
  140000    292.24751   -0.0144375    118.69267 
  140100    292.15723 -0.014451937    118.70506 
  140200    292.28069 -0.014466375    118.71575 
  140300     292.5503 -0.014480812    118.72234 
  140400     292.2166  -0.01449525     118.7227 
  140500    292.61586 -0.014509687    118.71549 
  140600     292.3043 -0.014524125    118.70486 
  140700    292.80266 -0.014538563    118.69048 
  140800     293.2143    -0.014553    118.67236 
  140900    293.17719 -0.014567438     118.6506 
  141000    292.68447 -0.014581875     118.6252 
  141100    292.91115 -0.014596312    118.59415 
  141200    292.92092  -0.01461075    118.55834 
  141300    292.68945 -0.014625187    118.51851 
  141400    292.84818 -0.014639625    118.47669 
  141500    293.13463 -0.014654063    118.43152 
  141600      293.083   -0.0146685    118.38392 
  141700    292.70906 -0.014682937    118.33224 
  141800    292.62187 -0.014697375    118.27889 
  141900    293.23979 -0.014711812    118.22345 
  142000    292.94174  -0.01472625    118.16495 
  142100    293.00743 -0.014740687    118.10456 
  142200    293.82167 -0.014755125    118.04371 
  142300    292.93272 -0.014769563    117.98261 
  142400    293.04633    -0.014784    117.91995 
  142500    292.91509 -0.014798438    117.85655 
  142600     292.9224 -0.014812875    117.79091 
  142700    292.46877 -0.014827312    117.72491 
  142800    292.80538  -0.01484175    117.66183 
  142900    292.60823 -0.014856187    117.60281 
  143000    292.54857 -0.014870625    117.54588 
  143100    292.89124 -0.014885062    117.49263 
  143200    292.72488   -0.0148995    117.44278 
  143300    292.91087 -0.014913938    117.39429 
  143400    292.67154 -0.014928375    117.34869 
  143500    292.36395 -0.014942812    117.30774 
  143600    292.06124  -0.01495725    117.27255 
  143700    292.46852 -0.014971687    117.24135 
  143800    292.18819 -0.014986125    117.21473 
  143900    292.44831 -0.015000562    117.19246 
  144000    292.43985    -0.015015    117.17484 
  144100    292.49532 -0.015029437    117.15908 
  144200    292.14414 -0.015043875    117.14629 
  144300    292.34832 -0.015058312    117.13786 
  144400    292.53828  -0.01507275     117.1365 
  144500    292.35118 -0.015087187    117.13754 
  144600    292.48582 -0.015101625    117.14189 
  144700    292.60004 -0.015116062    117.15071 
  144800     292.3594   -0.0151305    117.16351 
  144900    292.42126 -0.015144938    117.17959 
  145000    292.52057 -0.015159375    117.20147 
  145100     292.7064 -0.015173812     117.2287 
  145200    292.49157  -0.01518825    117.25686 
  145300    292.77011 -0.015202687    117.28679 
  145400     292.8861 -0.015217125      117.319 
  145500    292.54017 -0.015231562    117.35459 
  145600     292.7199    -0.015246    117.39281 
  145700    293.05634 -0.015260437    117.43102 
  145800    293.01885 -0.015274875    117.46985 
  145900    292.84903 -0.015289312    117.50776 
  146000    292.78049  -0.01530375    117.54703 
  146100    292.88852 -0.015318187    117.58552 
  146200    292.93906 -0.015332625    117.62248 
  146300    293.07344 -0.015347062    117.65763 
  146400    292.39321   -0.0153615    117.69018 
  146500    292.44438 -0.015375938    117.71992 
  146600     292.3387 -0.015390375    117.74989 
  146700    292.64945 -0.015404813    117.77664 
  146800    292.29461  -0.01541925     117.7997 
  146900    292.45631 -0.015433687    117.82027 
  147000     292.2779 -0.015448125    117.83662 
  147100    292.33585 -0.015462562    117.85103 
  147200     292.0623    -0.015477    117.86096 
  147300     292.0756 -0.015491437    117.86591 
  147400    291.79346 -0.015505875    117.86671 
  147500    291.79966 -0.015520312    117.86594 
  147600    292.28445  -0.01553475    117.86251 
  147700    292.55411 -0.015549187     117.8546 
  147800    292.37687 -0.015563625    117.83981 
  147900    292.53671 -0.015578062     117.8199 
  148000    292.35896   -0.0155925     117.7948 
  148100    292.69684 -0.015606937    117.76683 
  148200    292.76884 -0.015621375    117.73489 
  148300    292.71393 -0.015635812    117.69729 
  148400    292.74958  -0.01565025    117.65917 
  148500    292.81858 -0.015664687    117.62106 
  148600    292.88472 -0.015679125    117.57779 
  148700    293.14017 -0.015693562    117.52958 
  148800    293.03779    -0.015708    117.47792 
  148900    292.86619 -0.015722437    117.42268 
  149000     292.5503 -0.015736875    117.36379 
  149100    292.67624 -0.015751312    117.30506 
  149200    292.57328  -0.01576575    117.24388 
  149300    292.79293 -0.015780188    117.18333 
  149400    292.94852 -0.015794625    117.12291 
  149500     292.2732 -0.015809062      117.065 
  149600    292.74276   -0.0158235     117.0088 
  149700     292.8175 -0.015837937    116.95448 
  149800    293.27038 -0.015852375    116.90022 
  149900    292.48686 -0.015866813    116.84807 
  150000    292.61832  -0.01588125    116.79682 
  150100    292.78525 -0.015895687    116.74875 
  150200     292.8355 -0.015910125    116.70458 
  150300    292.78681 -0.015924562    116.66116 
  150400    292.53982    -0.015939    116.61841 
  150500    292.24696 -0.015953437     116.5785 
  150600    292.70312 -0.015967875     116.5409 
  150700    292.48035 -0.015982313     116.5088 
  150800     292.7728  -0.01599675    116.48324 
  150900    292.32734 -0.016011187     116.4627 
  151000    292.61869 -0.016025625    116.44525 
  151100    292.35337 -0.016040063    116.43134 
  151200    292.84718   -0.0160545    116.41998 
  151300    292.08834 -0.016068937    116.41396 
  151400    292.43163 -0.016083375    116.41315 
  151500    292.41729 -0.016097812    116.41622 
  151600    292.31351  -0.01611225    116.42398 
  151700    292.59884 -0.016126688    116.43533 
  151800    292.47779 -0.016141125    116.44735 
  151900     292.8855 -0.016155562    116.46159 
  152000    292.61981     -0.01617    116.48199 
  152100    293.10997 -0.016184437    116.50725 
  152200    292.70222 -0.016198875    116.53662 
  152300    293.03609 -0.016213313    116.56671 
  152400    293.03445  -0.01622775    116.59704 
  152500    293.19197 -0.016242188    116.62888 
  152600    292.85956 -0.016256625    116.66086 
  152700    292.97699 -0.016271062    116.69192 
  152800    292.79293   -0.0162855    116.72392 
  152900    292.72231 -0.016299938    116.75421 
  153000      292.846 -0.016314375    116.78273 
  153100    292.50295 -0.016328812    116.81004 
  153200    292.34194  -0.01634325    116.83894 
  153300    292.53024 -0.016357687    116.86794 
  153400    292.70404 -0.016372125     116.8959 
  153500    292.73515 -0.016386563    116.92471 
  153600    292.54381    -0.016401    116.94834 
  153700    292.33095 -0.016415437    116.96514 
  153800    292.35168 -0.016429875    116.97872 
  153900    292.51261 -0.016444312    116.98835 
  154000    292.41452  -0.01645875    116.99752 
  154100    292.38287 -0.016473187    117.00436 
  154200    292.30756 -0.016487625    117.00743 
  154300    292.84021 -0.016502063    117.00523 
  154400    292.65113   -0.0165165    117.00064 
  154500    292.76642 -0.016530937    116.99021 
  154600    292.84377 -0.016545375    116.97525 
  154700     292.7877 -0.016559812    116.95814 
  154800    292.51858  -0.01657425    116.93645 
  154900      292.751 -0.016588688    116.91179 
  155000    293.45117 -0.016603125    116.88283 
  155100    292.79272 -0.016617562    116.85211 
  155200    293.31752    -0.016632    116.81579 
  155300     292.9374 -0.016646437    116.77707 
  155400    293.06488 -0.016660875    116.73452 
  155500    293.15051 -0.016675312    116.68853 
  155600    293.24179  -0.01668975    116.64324 
  155700    292.85756 -0.016704188    116.59587 
  155800    292.63261 -0.016718625    116.54868 
  155900    292.83369 -0.016733062    116.49937 
  156000    292.77458   -0.0167475    116.44728 
  156100    292.53295 -0.016761938    116.39219 
  156200    292.95619 -0.016776375    116.33743 
  156300    292.43127 -0.016790812    116.28797 
  156400     292.5123  -0.01680525     116.2404 
  156500    292.55702 -0.016819687    116.19421 
  156600      292.772 -0.016834125    116.14656 
  156700    292.67662 -0.016848563    116.10071 
  156800    292.94786    -0.016863    116.05736 
  156900    293.00234 -0.016877437    116.01856 
  157000    292.63939 -0.016891875    115.98104 
  157100    292.94926 -0.016906312    115.94621 
  157200    292.59992  -0.01692075    115.91452 
  157300    292.25065 -0.016935188    115.88333 
  157400    292.53303 -0.016949625    115.85637 
  157500    292.74971 -0.016964063    115.83319 
  157600    292.27544   -0.0169785     115.8135 
  157700    292.15537 -0.016992937    115.79681 
  157800    292.43631 -0.017007375    115.78616 
  157900     292.4315 -0.017021812    115.78001 
  158000    292.69721  -0.01703625    115.77487 
  158100    292.39687 -0.017050687    115.77446 
  158200    292.67855 -0.017065125    115.77646 
  158300    292.49399 -0.017079562    115.78459 
  158400    292.51321    -0.017094    115.79908 
  158500    292.39432 -0.017108438    115.81708 
  158600    292.56606 -0.017122875    115.83556 
  158700    292.47698 -0.017137312    115.85541 
  158800     292.7969  -0.01715175    115.87543 
  158900    292.77887 -0.017166187    115.90068 
  159000    292.87025 -0.017180625    115.92731 
  159100    292.56426 -0.017195063    115.95803 
  159200    292.93348   -0.0172095    115.98822 
  159300    292.90099 -0.017223937    116.01459 
  159400     292.8588 -0.017238375    116.04137 
  159500    292.71658 -0.017252812    116.06795 
  159600    292.89622  -0.01726725     116.0963 
  159700    292.96998 -0.017281687    116.12198 
  159800    292.78572 -0.017296125    116.14611 
  159900    292.63152 -0.017310563    116.16814 
  160000    292.40071    -0.017325    116.18874 
  160100    292.35496 -0.017339437    116.20739 
  160200    292.46963 -0.017353875    116.22616 
  160300    292.75513 -0.017368313    116.24523 
  160400    292.44393  -0.01738275    116.26183 
  160500    292.11775 -0.017397187    116.27475 
  160600    292.26777 -0.017411625    116.28572 
  160700    292.08857 -0.017426062    116.29387 
  160800    292.56899   -0.0174405    116.29565 
  160900    292.51174 -0.017454937    116.29206 
  161000    292.43551 -0.017469375    116.28242 
  161100    292.41255 -0.017483812    116.27026 
  161200    292.62247  -0.01749825    116.25504 
  161300    292.80057 -0.017512687     116.2338 
  161400    292.43356 -0.017527125    116.20877 
  161500    293.04053 -0.017541562    116.18097 
  161600    292.65377    -0.017556    116.14948 
  161700    292.68236 -0.017570438     116.1158 
  161800    293.05377 -0.017584875    116.07875 
  161900    292.67146 -0.017599312    116.03995 
  162000    292.97213  -0.01761375    116.00266 
  162100    292.56775 -0.017628187    115.96548 
  162200    292.64746 -0.017642625    115.92358 
  162300    292.57158 -0.017657062    115.88011 
  162400    292.52954   -0.0176715     115.8348 
  162500    292.77136 -0.017685937    115.78645 
  162600    292.79787 -0.017700375    115.73683 
  162700    293.17766 -0.017714812    115.68971 
  162800    292.44596  -0.01772925    115.64122 
  162900    292.75677 -0.017743687    115.59161 
  163000    292.59381 -0.017758125    115.54442 
  163100    292.68117 -0.017772562    115.49944 
  163200     292.7568    -0.017787    115.45772 
  163300    292.81576 -0.017801437    115.41748 
  163400    292.64473 -0.017815875    115.37591 
  163500    292.57101 -0.017830313    115.33985 
  163600    292.51553  -0.01784475    115.30808 
  163700    292.35921 -0.017859187    115.27901 
  163800    292.71661 -0.017873625    115.24976 
  163900    292.28112 -0.017888062    115.22634 
  164000    291.93991   -0.0179025    115.20749 
  164100    292.48671 -0.017916938    115.19072 
  164200    292.45104 -0.017931375    115.17908 
  164300    291.96636 -0.017945812    115.17087 
  164400    292.59267  -0.01796025     115.1654 
  164500    292.46946 -0.017974687    115.16338 
  164600    292.37034 -0.017989125    115.16529 
  164700    292.58912 -0.018003562    115.17243 
  164800    292.55713    -0.018018    115.18698 
  164900    292.69851 -0.018032438    115.20193 
  165000     292.7282 -0.018046875    115.21622 
  165100    292.73534 -0.018061312    115.23333 
  165200    293.01875  -0.01807575    115.25362 
  165300    292.81178 -0.018090188    115.27794 
  165400    293.11817 -0.018104625    115.30394 
  165500    293.08028 -0.018119062    115.32987 
  165600    292.71298   -0.0181335    115.35577 
  165700    293.19193 -0.018147937     115.3818 
  165800    292.80114 -0.018162375    115.40767 
  165900    292.70724 -0.018176813     115.4325 
  166000     292.9405  -0.01819125    115.45984 
  166100    292.57614 -0.018205687    115.48879 
  166200    292.83625 -0.018220125    115.51564 
  166300    292.51877 -0.018234562     115.5406 
  166400    292.70411    -0.018249    115.56434 
  166500    292.51279 -0.018263438    115.58736 
  166600    292.53391 -0.018277875    115.60516 
  166700    292.41431 -0.018292313    115.62121 
  166800    292.64038  -0.01830675    115.63525 
  166900    292.65463 -0.018321187    115.64603 
  167000    292.46274 -0.018335625    115.65225 
  167100    292.55624 -0.018350063    115.65409 
  167200    292.39243   -0.0183645    115.65191 
  167300    292.72099 -0.018378937    115.64732 
  167400    292.41844 -0.018393375    115.63879 
  167500    292.36486 -0.018407812     115.6277 
  167600     292.3848  -0.01842225    115.61511 
  167700    292.39429 -0.018436687    115.59767 
  167800    292.61698 -0.018451125     115.5727 
  167900    292.87511 -0.018465562    115.54524 
  168000    292.64432     -0.01848    115.51526 
  168100    292.52259 -0.018494437    115.48331 
  168200    292.25837 -0.018508875    115.44764 
  168300    292.74655 -0.018523312    115.40932 
  168400     292.4076  -0.01853775    115.36696 
  168500    292.29072 -0.018552188    115.32336 
  168600    293.12609 -0.018566625    115.27754 
  168700    292.20193 -0.018581062    115.23303 
  168800    292.23428   -0.0185955    115.18966 
  168900    292.47649 -0.018609937    115.14536 
  169000    292.51566 -0.018624375    115.10058 
  169100    292.73302 -0.018638813    115.05383 
  169200    292.82478  -0.01865325    115.00736 
  169300    292.61331 -0.018667687     114.9617 
  169400    292.45501 -0.018682125    114.91767 
  169500    292.77399 -0.018696562    114.87591 
  169600    292.17083    -0.018711    114.83594 
  169700    292.60849 -0.018725437     114.7959 
  169800    292.77488 -0.018739875    114.75936 
  169900    292.58423 -0.018754313    114.72694 
  170000     292.3573  -0.01876875     114.6977 
  170100    292.08434 -0.018783187    114.66896 
  170200    292.61891 -0.018797625    114.64472 
  170300    292.61906 -0.018812063    114.62535 
  170400    291.94006   -0.0188265    114.60715 
  170500    292.20222 -0.018840937    114.59552 
  170600     292.1517 -0.018855375    114.58841 
  170700    292.42144 -0.018869812    114.58459 
  170800    292.20057  -0.01888425    114.58264 
  170900    292.46458 -0.018898688    114.58605 
  171000    291.97205 -0.018913125    114.59299 
  171100    292.27357 -0.018927562    114.60313 
  171200     292.6196    -0.018942    114.61756 
  171300    292.32686 -0.018956437    114.63435 
  171400    292.17252 -0.018970875    114.65571 
  171500     291.9431 -0.018985313    114.68172 
  171600     292.4763  -0.01899975    114.70706 
  171700    291.90507 -0.019014188    114.73368 
  171800    292.09898 -0.019028625    114.75747 
  171900    292.57687 -0.019043062    114.77973 
  172000     292.6954   -0.0190575    114.80199 
  172100    292.39453 -0.019071937    114.82567 
  172200    292.68568 -0.019086375    114.84944 
  172300    292.72153 -0.019100812    114.87497 
  172400    292.56714  -0.01911525    114.90404 
  172500    292.53569 -0.019129687    114.93233 
  172600    292.26312 -0.019144125    114.96111 
  172700    292.93583 -0.019158563    114.98819 
  172800    292.52207    -0.019173     115.0102 
  172900     292.5674 -0.019187437    115.02795 
  173000    292.72747 -0.019201875    115.04247 
  173100    292.41651 -0.019216312    115.05378 
  173200     292.8819  -0.01923075    115.05788 
  173300    292.77813 -0.019245188    115.05795 
  173400    292.75311 -0.019259625    115.05675 
  173500      292.959 -0.019274062    115.05414 
  173600    292.49933   -0.0192885    115.05104 
  173700    293.33268 -0.019302937    115.04221 
  173800    293.18741 -0.019317375    115.02817 
  173900    292.72171 -0.019331812    115.01197 
  174000      292.899  -0.01934625    114.99296 
  174100    292.73591 -0.019360688     114.9686 
  174200    293.03738 -0.019375125    114.94101 
  174300    292.83435 -0.019389562    114.91069 
  174400    292.78208    -0.019404    114.87691 
  174500    292.71639 -0.019418437    114.83935 
  174600    292.67974 -0.019432875    114.80348 
  174700    292.66545 -0.019447312    114.76347 
  174800    292.52557  -0.01946175    114.72131 
  174900    292.38625 -0.019476187    114.67494 
  175000    292.33101 -0.019490625    114.62821 
  175100    292.80502 -0.019505062    114.58435 
  175200      292.705   -0.0195195    114.54214 
  175300    292.43425 -0.019533937    114.50018 
  175400    292.84952 -0.019548375    114.45669 
  175500      292.819 -0.019562812    114.41551 
  175600    292.95784  -0.01957725    114.37306 
  175700    292.55045 -0.019591687    114.32944 
  175800    292.72037 -0.019606125    114.28796 
  175900    292.66594 -0.019620563    114.24968 
  176000    292.68821    -0.019635     114.2134 
  176100    292.24876 -0.019649437    114.18188 
  176200    292.61045 -0.019663875    114.15516 
  176300    292.63604 -0.019678312    114.12995 
  176400    292.41894  -0.01969275     114.1062 
  176500    292.81077 -0.019707188    114.08763 
  176600    292.46267 -0.019721625    114.07292 
  176700    292.25443 -0.019736062    114.06189 
  176800    292.63449   -0.0197505    114.05311 
  176900    292.31223 -0.019764937    114.04843 
  177000    292.45191 -0.019779375    114.04769 
  177100    292.49047 -0.019793812     114.0497 
  177200    292.58609  -0.01980825    114.05565 
  177300    292.92756 -0.019822687    114.06482 
  177400    292.75501 -0.019837125    114.07751 
  177500    292.71017 -0.019851562    114.09287 
  177600    292.98826    -0.019866      114.113 
  177700    293.02647 -0.019880438    114.13517 
  177800    292.56563 -0.019894875    114.15766 
  177900    292.80853 -0.019909312    114.17965 
  178000    293.40683  -0.01992375    114.20444 
  178100    293.17519 -0.019938187    114.22987 
  178200    293.03916 -0.019952625    114.25681 
  178300    292.68765 -0.019967063    114.28463 
  178400    292.70821   -0.0199815    114.31183 
  178500    292.49661 -0.019995937    114.33714 
  178600    292.81692 -0.020010375     114.3616 
  178700    292.50587 -0.020024812    114.38215 
  178800       292.34  -0.02003925    114.40097 
  178900    292.41796 -0.020053687    114.42087 
  179000    292.46271 -0.020068125    114.43911 
  179100     292.5149 -0.020082563      114.455 
  179200    292.38115    -0.020097    114.46878 
  179300    292.31592 -0.020111437    114.47834 
  179400     292.6048 -0.020125875    114.48382 
  179500    292.95374 -0.020140313    114.48564 
  179600    292.76383  -0.02015475    114.48418 
  179700    292.29431 -0.020169187    114.48045 
  179800      292.336 -0.020183625    114.47265 
  179900    292.66068 -0.020198062    114.46149 
  180000     292.3572   -0.0202125    114.44947 
  180100    292.72122 -0.020226938    114.43288 
  180200     292.5743 -0.020241375    114.40862 
  180300    292.57317 -0.020255812    114.38289 
  180400    292.48591  -0.02027025     114.3559 
  180500    293.09456 -0.020284687    114.32639 
  180600    292.65391 -0.020299125    114.29207 
  180700    292.79821 -0.020313563    114.25175 
  180800    292.79004    -0.020328    114.21027 
  180900    292.26014 -0.020342438    114.16863 
  181000    292.08635 -0.020356875    114.12634 
  181100    292.49371 -0.020371312    114.08494 
  181200    292.26147  -0.02038575    114.04515 
  181300    292.24863 -0.020400187    114.00287 
  181400     292.0527 -0.020414625    113.95847 
  181500    292.21198 -0.020429062    113.91753 
  181600    292.68056   -0.0204435    113.88082 
  181700    292.81012 -0.020457937    113.84183 
  181800    292.02963 -0.020472375    113.80298 
  181900    292.61038 -0.020486812    113.76593 
  182000     292.2629  -0.02050125    113.73345 
  182100    292.74706 -0.020515687    113.70204 
  182200    292.48664 -0.020530125    113.67075 
  182300    292.48359 -0.020544562    113.64116 
  182400    292.74581    -0.020559    113.61568 
  182500    292.70915 -0.020573437    113.59429 
  182600    292.39259 -0.020587875    113.57759 
  182700    292.06572 -0.020602313    113.56368 
  182800    292.04756  -0.02061675    113.55358 
  182900    292.02649 -0.020631187    113.54704 
  183000    292.43951 -0.020645625    113.54512 
  183100    292.34714 -0.020660062       113.55 
  183200    292.23713   -0.0206745    113.55783 
  183300    292.28907 -0.020688938    113.56321 
  183400    292.16141 -0.020703375    113.57054 
  183500    292.02222 -0.020717812    113.58278 
  183600    291.88331  -0.02073225    113.59919 
  183700    292.54308 -0.020746687    113.61971 
  183800    292.21285 -0.020761125    113.64564 
  183900    292.36512 -0.020775562    113.67249 
  184000    292.33183     -0.02079    113.69767 
  184100    292.77328 -0.020804438    113.72088 
  184200    292.60051 -0.020818875    113.74494 
  184300    292.66056 -0.020833312    113.76998 
  184400    292.40694  -0.02084775    113.79477 
  184500    292.45916 -0.020862188    113.81822 
  184600    292.32778 -0.020876625    113.83848 
  184700    292.76441 -0.020891062     113.8583 
  184800    292.37225   -0.0209055    113.87808 
  184900     292.9439 -0.020919937    113.89717 
  185000    292.59117 -0.020934375    113.91486 
  185100    292.45483 -0.020948813     113.9319 
  185200    292.51174  -0.02096325    113.94697 
  185300    292.64535 -0.020977687    113.95698 
  185400      292.897 -0.020992125    113.96122 
  185500    292.86813 -0.021006562     113.9665 
  185600    292.73784    -0.021021    113.96845 
  185700    292.77179 -0.021035438    113.96444 
  185800    292.77917 -0.021049875    113.95595 
  185900    292.79391 -0.021064313    113.94379 
  186000    292.57057  -0.02107875    113.92956 
  186100    293.26353 -0.021093187    113.90977 
  186200    293.40435 -0.021107625    113.88744 
  186300    292.88496 -0.021122062    113.86305 
  186400    292.36327   -0.0211365    113.83542 
  186500    292.98917 -0.021150937    113.80611 
  186600    292.99464 -0.021165375    113.77285 
  186700    292.69445 -0.021179812    113.73751 
  186800    292.72732  -0.02119425    113.69816 
  186900    292.73297 -0.021208688    113.65812 
  187000     292.5679 -0.021223125    113.61553 
  187100    292.59485 -0.021237562    113.57165 
  187200    292.70964    -0.021252     113.5308 
  187300    292.75103 -0.021266437    113.48982 
  187400    292.63257 -0.021280875    113.44824 
  187500    292.73394 -0.021295313    113.40649 
  187600    292.51424  -0.02130975    113.36585 
  187700    292.34228 -0.021324187    113.32821 
  187800    292.61857 -0.021338625    113.29262 
  187900    292.81283 -0.021353062    113.25877 
  188000     292.7685   -0.0213675    113.22829 
  188100    292.36795 -0.021381937    113.19555 
  188200    292.56315 -0.021396375    113.16375 
  188300    292.23214 -0.021410813    113.13598 
  188400    292.67155  -0.02142525    113.11364 
  188500    292.37435 -0.021439687    113.09605 
  188600    292.47942 -0.021454125    113.07893 
  188700    292.42761 -0.021468562    113.06435 
  188800    292.31207    -0.021483     113.0574 
  188900    292.24784 -0.021497437    113.05497 
  189000     292.4602 -0.021511875    113.05389 
  189100    292.35809 -0.021526312     113.0551 
  189200    292.48754  -0.02154075     113.0604 
  189300    292.59943 -0.021555187    113.06889 
  189400    292.53369 -0.021569625    113.07817 
  189500    292.30373 -0.021584062    113.09103 
  189600    292.53249   -0.0215985    113.10911 
  189700    292.45958 -0.021612937      113.128 
  189800    293.00696 -0.021627375    113.14795 
  189900    292.61092 -0.021641812    113.17115 
  190000    292.69272  -0.02165625     113.1943 
  190100    292.90157 -0.021670688    113.21917 
  190200    293.08804 -0.021685125    113.24415 
  190300      293.055 -0.021699562    113.26856 
  190400    293.18637    -0.021714    113.29337 
  190500     292.7549 -0.021728437    113.31562 
  190600    292.91515 -0.021742875    113.33719 
  190700    292.27025 -0.021757313    113.35696 
  190800    292.54805  -0.02177175    113.37431 
  190900    292.30715 -0.021786187    113.39092 
  191000     292.5075 -0.021800625    113.40871 
  191100    292.55266 -0.021815062    113.42301 
  191200    292.44806   -0.0218295    113.43387 
  191300    292.25449 -0.021843937    113.44088 
  191400    292.56274 -0.021858375    113.44322 
  191500     292.1454 -0.021872812    113.44368 
  191600    292.17987  -0.02188725    113.44181 
  191700    292.21585 -0.021901687    113.43394 
  191800    291.94749 -0.021916125    113.42114 
  191900    292.56467 -0.021930563    113.40548 
  192000    292.58813    -0.021945     113.3881 
  192100     292.7646 -0.021959437    113.37155 
  192200    293.09523 -0.021973875    113.35214 
  192300    293.11695 -0.021988312    113.32811 
  192400    292.68522  -0.02200275    113.30091 
  192500    292.89071 -0.022017188     113.2711 
  192600    292.85977 -0.022031625     113.2368 
  192700    293.24129 -0.022046062    113.19961 
  192800    293.60427   -0.0220605    113.16401 
  192900    293.34604 -0.022074937    113.12626 
  193000    293.12703 -0.022089375    113.08543 
  193100    293.47989 -0.022103812    113.04505 
  193200    293.03828  -0.02211825    113.00486 
  193300    292.89101 -0.022132688    112.96565 
  193400    292.82077 -0.022147125    112.92529 
  193500    292.51636 -0.022161562    112.88659 
  193600    293.13775    -0.022176    112.84936 
  193700    292.61078 -0.022190438     112.8137 
  193800    292.84688 -0.022204875    112.77959 
  193900    292.91289 -0.022219312    112.75175 
  194000    292.48971  -0.02223375    112.72438 
  194100     292.5852 -0.022248187    112.69851 
  194200    292.61219 -0.022262625    112.67698 
  194300    292.13091 -0.022277062     112.6595 
  194400    292.61726   -0.0222915     112.6413 
  194500     292.6827 -0.022305937    112.62611 
  194600    292.26503 -0.022320375    112.61564 
  194700    292.64863 -0.022334812    112.60781 
  194800    291.96921  -0.02234925    112.60366 
  194900    292.28581 -0.022363687    112.60265 
  195000    292.53557 -0.022378125    112.60591 
  195100    292.34602 -0.022392563    112.61445 
  195200    292.37492    -0.022407    112.62187 
  195300     292.7337 -0.022421437    112.63328 
  195400    292.15375 -0.022435875     112.6451 
  195500    292.14123 -0.022450312    112.66209 
  195600    292.49938  -0.02246475    112.67842 
  195700    292.96453 -0.022479187    112.69835 
  195800    292.03047 -0.022493625    112.71855 
  195900    292.98322 -0.022508062    112.74054 
  196000    292.97609   -0.0225225    112.76338 
  196100     292.8609 -0.022536937    112.78735 
  196200    292.67596 -0.022551375    112.81099 
  196300    292.72868 -0.022565812    112.83315 
  196400    292.62163  -0.02258025    112.85518 
  196500    292.96758 -0.022594687     112.8749 
  196600    293.19859 -0.022609125    112.89262 
  196700    292.70959 -0.022623562    112.90946 
  196800    292.74987    -0.022638    112.92536 
  196900    292.59775 -0.022652438    112.93905 
  197000     292.7303 -0.022666875     112.9487 
  197100    292.49676 -0.022681312    112.95427 
  197200    292.65007  -0.02269575    112.95676 
  197300    292.85626 -0.022710187    112.95455 
  197400    292.94279 -0.022724625    112.95035 
  197500    292.43632 -0.022739063    112.94417 
  197600    292.63503   -0.0227535     112.9363 
  197700    292.54474 -0.022767937    112.92473 
  197800    292.25796 -0.022782375    112.90861 
  197900    292.08819 -0.022796812    112.89232 
  198000    293.03071  -0.02281125    112.87294 
  198100    292.48973 -0.022825687    112.84945 
  198200    292.50515 -0.022840125    112.82359 
  198300    292.66756 -0.022854563    112.79433 
  198400    292.96826    -0.022869    112.76169 
  198500    292.57014 -0.022883437     112.7279 
  198600    292.98048 -0.022897875    112.69262 
  198700    292.80736 -0.022912313    112.65513 
  198800    292.56199  -0.02292675    112.61993 
  198900    292.77921 -0.022941187     112.5847 
  199000    292.65622 -0.022955625    112.54633 
  199100    292.57912 -0.022970062    112.51083 
  199200    292.83936   -0.0229845    112.47198 
  199300    292.41185 -0.022998938    112.43279 
  199400     292.1311 -0.023013375     112.3966 
  199500    292.42692 -0.023027812      112.363 
  199600    292.89823  -0.02304225    112.33133 
  199700    292.55744 -0.023056687    112.29997 
  199800    292.96624 -0.023071125    112.27003 
  199900    292.72186 -0.023085563    112.24521 
  200000    292.07898      -0.0231    112.22554 
  200001    292.07902 -0.023100144    112.22535 
Loop time of 24886 on 64 procs for 160001 steps with 757633 atoms

Performance: 1.111 ns/day, 21.602 hours/ns, 6.429 timesteps/s
85.8% CPU use with 64 MPI tasks x no OpenMP threads

MPI task timing breakdown:
Section |  min time  |  avg time  |  max time  |%varavg| %total
---------------------------------------------------------------
Pair    | 1675.8     | 8722.8     | 19638      |5087.2 | 35.05
Neigh   | 206.51     | 925.54     | 2122.1     |1667.5 |  3.72
Comm    | 2108       | 13724      | 21869      |4255.3 | 55.15
Output  | 22.001     | 22.261     | 22.494     |   2.6 |  0.09
Modify  | 783.04     | 1392.8     | 3174       |1597.6 |  5.60
Other   |            | 98.42      |            |       |  0.40

Nlocal:    11838 ave 26229 max 0 min
Histogram: 16 0 0 4 20 4 8 0 8 4
Nghost:    8514.78 ave 12509 max 4671 min
Histogram: 4 8 4 12 1 7 16 8 0 4
Neighs:    0 ave 0 max 0 min
Histogram: 64 0 0 0 0 0 0 0 0 0
FullNghs:  701572 ave 1.7595e+06 max 0 min
Histogram: 16 0 0 11 21 4 0 8 0 4

Total # of neighbors = 44900618
Ave neighs/atom = 59.2643
Neighbor list builds = 16000
Dangerous builds = 15984
Total wall time: 6:54:47
