LAMMPS (27 Aug 2016-ICMS)

#include "system.in"
#velocity	all create 1 277387 mom yes


#include "system.prepare"

variable loadStep equal 30000

include "system.in.init"
  units         metal
  boundary      p p p
  atom_style    atomic
  pair_style    vashishta
  #pair_modify  mix arithmetic  # LEAVE THIS UNSPECIFIED!
read_restart restartFiles/SiO2_lower30000.restart
  orthogonal box = (0 0 0) to (71.2 71.2 71.2)
  2 by 2 by 2 MPI processor grid
  12815 atoms
include "system.in.settings"
  pair_coeff  * *  SiO2.vashishta Si O
Reading potential file SiO2.vashishta with DATE: 2015-10-14
  pair_modify table 16
  pair_modify tabinner 0.1


variable N equal 15000
variable T equal 293
variable Fz equal -0.01 #*(15000-step)/${N}
variable Fx equal 0.0

neighbor	0.3 bin
neigh_modify	delay 10

thermo		100
timestep	0.002


restart 2000 restartFiles/SiO2_shear_Fx01N15000_*.restart
#dump myDump sphereG atom 500 dumpFiles/SiO2_shear_sphere_Fx01N15000*.dump
dump myDump2 all atom 100 dumpFiles/SiO2_shear_all*.dump



region slab block INF INF INF INF 3.0 25.0
group sphereIndentTmp region slab
7518 atoms in group sphereIndentTmp
group sphereIndentG subtract sphereIndentTmp slabG
118 atoms in group sphereIndentG

fix rigidTop sphereUpperG rigid single force 1 on off on torque 1 on on on
1 rigid bodies with 2800 atoms

compute comTop    sphereUpperG  com      #Center of mass
compute comSphere sphereIndentG com
compute tempID    excludeBT     temp     #Temperature



fix addforce sphereUpperG addforce 0 0 v_Fz
fix pullID sphereUpperG smd cvel 10.0 0.001 tether 100 NULL NULL 0.0


fix nvtID excludeB nvt temp ${T} ${T} 1.0
fix nvtID excludeB nvt temp 293 ${T} 1.0
fix nvtID excludeB nvt temp 293 293 1.0
Resetting global state of Fix nvtID Style nvt from restart file info
thermo_style custom step c_comSphere[1] f_pullID[1] f_pullID[6]
balance 1.1 shift xyz 50 1.0
WARNING: One or more atoms are time integrated more than once (../modify.cpp:271)
Neighbor list info ...
  1 neighbor list requests
  update every 1 steps, delay 10 steps, check yes
  max neighbors/atom: 2000, page size: 100000
  master list distance cutoff = 5.8
  ghost atom cutoff = 5.8
  binsize = 2.9 -> bins = 25 25 25
  rebalancing time: 0.008684 seconds
  iteration count = 77
  initial/final max load/proc = 2451 1614
  initial/final imbalance factor = 1.53008 1.00757
  x cuts: 0 0.5 1
  y cuts: 0 0.499695 1
  z cuts: 0 0.251495 1
run ${N}
run 15000
WARNING: One or more atoms are time integrated more than once (../modify.cpp:271)
Memory usage per processor = 8.92313 Mbytes
Step c_comSphere[1] f_pullID[1] f_pullID[6] 
   30000    36.434901 2.8421709e-13    84.559095 
   30100    36.502265  0.039999413    84.576121 
   30200    36.515262   0.12593225    84.593342 
   30300    36.511643   0.17864277    84.607246 
   30400    36.451644   0.22649282    84.623858 
   30500    36.333409    0.2123188    84.640251 
   30600    36.398952   0.36016254    84.667116 
   30700    36.423388   0.56997527    84.693618 
   30800    36.402037    0.9308676    84.734099 
   30900    36.422939     1.195898    84.766269 
   31000    36.389762    1.2629921    84.777901 
   31100    36.432049    1.2828603    84.779588 
   31200    36.402225    1.2997452    84.773072 
   31300    36.371822    1.2332765    84.759637 
   31400    36.368664    1.1175106    84.738822 
   31500    36.372542   0.97421941    84.715341 
   31600    36.432186   0.75003098     84.68342 
   31700    36.382635   0.73003624    84.668125 
   31800    36.405141   0.60177598    84.644825 
   31900    36.445938   0.45742527     84.61835 
   32000    36.449651   0.26912725    84.584466 
   32100    36.445862  0.099145772     84.55453 
   32200    36.479548  0.089580057    84.543311 
   32300    36.481153   0.10819439    84.533764 
   32400     36.47971  0.094644667    84.528369 
   32500    36.479946   0.23910324    84.543056 
   32600    36.427057   0.37738671    84.560565 
   32700    36.390015   0.49831865    84.578856 
   32800    36.375918   0.67640239    84.604145 
   32900    36.452294   0.89106418     84.63025 
   33000    36.383059    1.0815742    84.658277 
   33100    36.411211    1.0509711    84.674687 
   33200    36.412649    1.0030241    84.695359 
   33300    36.375929   0.94671238    84.707757 
   33400     36.33718    0.9114994    84.719445 
   33500    36.397102   0.81087627    84.728556 
   33600     36.42553   0.65040199    84.734929 
   33700    36.393468   0.48618812    84.734983 
   33800     36.42897   0.30990444    84.723989 
   33900    36.419894   0.23939327    84.717973 
   34000    36.440437   0.05747029    84.702352 
   34100    36.429803  -0.18991898     84.67519 
   34200    36.492303   -0.3368714    84.649976 
   34300    36.420469   -0.3047135    84.642144 
   34400     36.44913  -0.26484264    84.629608 
   34500    36.463205  -0.21391326    84.613961 
   34600    36.429488 -0.099236688    84.605355 
   34700    36.454352   0.15040494    84.604085 
   34800    36.425964   0.43732172    84.609215 
   34900    36.402417   0.64504797    84.610792 
   35000    36.393617   0.85989146    84.618447 
   35100    36.397595    1.1379237    84.632591 
   35200    36.359729    1.3971564    84.651088 
   35300    36.348777    1.5273178    84.657209 
   35400    36.341187    1.5823752    84.668971 
   35500    36.314254    1.6326493    84.684842 
   35600    36.326389    1.6166862     84.69129 
   35700    36.382236    1.5723806    84.698644 
   35800    36.402886    1.4491728    84.699105 
   35900    36.412318     1.233883    84.695076 
   36000    36.412227   0.89183841    84.685108 
   36100    36.388604   0.52447664     84.67566 
   36200    36.366861   0.35018825     84.67721 
   36300    36.440104   0.22141188    84.678805 
   36400    36.456105 -0.035779807    84.664154 
   36500    36.421069  -0.18123815    84.661152 
   36600    36.446912  -0.32210285    84.654914 
   36700    36.434664  -0.37719221    84.649422 
   36800    36.491961  -0.34325692    84.652184 
   36900    36.467485   -0.1853023     84.66288 
   37000      36.4478   0.05021568    84.678514 
   37100    36.403416   0.25914782    84.685536 
   37200    36.428263   0.41411946    84.689396 
   37300    36.395485   0.71168111    84.702215 
   37400    36.344083   0.94420809    84.708393 
   37500    36.337814    1.2040033    84.712465 
   37600     36.35648    1.4289708    84.715589 
   37700    36.362974    1.6421433    84.722659 
   37800    36.369348    1.7543957    84.726681 
   37900    36.363471    1.7652811    84.723111 
   38000    36.372246    1.7207894    84.714336 
   38100    36.363262    1.5128798    84.693158 
   38200    36.382642    1.3057348    84.674762 
   38300    36.366762    1.1103373    84.657822 
   38400    36.394274   0.91125989    84.648385 
   38500    36.416191   0.60665153    84.633356 
   38600     36.45052   0.34780882    84.621475 
   38700    36.445328   0.15041148    84.613196 
   38800    36.474202  0.042658187    84.614404 
   38900    36.458045 -0.050467596    84.624195 
   39000    36.406052  -0.12335516    84.628559 
   39100    36.418829  -0.19484145    84.631406 
   39200    36.442109 -0.036573783    84.645147 
   39300     36.40645   0.20999498    84.667552 
   39400    36.442653   0.40873213     84.68921 
   39500    36.436777   0.53801238    84.703934 
   39600    36.397273   0.82541328    84.731989 
   39700    36.416793     1.043107    84.742692 
   39800    36.374834    1.2223945    84.746665 
   39900    36.363194    1.4115342    84.754186 
   40000    36.363527    1.4613279    84.747478 
   40100    36.389188    1.4733013    84.737813 
   40200    36.381552    1.4864164    84.732086 
   40300    36.365573     1.386959    84.714019 
   40400     36.35184     1.196036    84.685189 
   40500    36.376875   0.95049113    84.656739 
   40600    36.378881   0.76783567    84.633263 
   40700      36.4342    0.6214331    84.615352 
   40800    36.447055   0.46373843    84.599813 
   40900    36.450298   0.26840803    84.586761 
   41000    36.472772    0.1266625    84.579327 
   41100    36.444482  0.057072634    84.577081 
   41200    36.419022 -0.082683049    84.570994 
   41300    36.421987 -0.083856504    84.577276 
   41400    36.452307 -0.018828235    84.593823 
   41500    36.443741   0.23198425     84.62585 
   41600     36.44442   0.46314673    84.655806 
   41700    36.413745   0.63984233    84.683145 
   41800    36.388832    0.7682658     84.70788 
   41900    36.402744   0.99108859     84.73332 
   42000    36.386975    1.2141065    84.750602 
   42100    36.387735    1.3170914    84.760822 
   42200    36.311922    1.2977264    84.763484 
   42300    36.305577       1.2136     84.75662 
   42400    36.346912    1.2908214    84.764609 
   42500    36.393008    1.3623643    84.764127 
   42600     36.42827    1.2904062    84.745235 
   42700    36.424522    1.1007767    84.720601 
   42800    36.424873   0.77582437    84.681794 
   42900    36.410627   0.46202162    84.644692 
   43000    36.383818   0.20445992    84.613046 
   43100    36.447921  0.035896275     84.58915 
   43200    36.451159  0.011201494    84.581685 
   43300    36.475893 -0.062514034    84.561953 
   43400    36.468261  -0.16253572    84.543102 
   43500    36.436755  -0.10620728    84.552086 
   43600    36.419365  0.018021882     84.56578 
   43700    36.462876   0.16431508    84.574043 
   43800    36.421947   0.33056184    84.590159 
   43900    36.432305   0.56782331     84.61528 
   44000    36.389899   0.81465924    84.643934 
   44100    36.333846    1.0443407    84.674711 
   44200    36.389809     1.172765    84.697024 
   44300    36.395858    1.3215932    84.720598 
   44400    36.354882      1.39312    84.738982 
   44500    36.339816    1.4478265    84.751182 
   44600    36.370498    1.4325042    84.758312 
   44700    36.362917    1.3045892    84.756144 
   44800    36.363142    1.0723716     84.73939 
   44900     36.35044   0.87982169    84.728362 
   45000    36.375216   0.60059466    84.706908 
Loop time of 191.308 on 8 procs for 15000 steps with 12815 atoms

Performance: 13.549 ns/day, 1.771 hours/ns, 78.407 timesteps/s
51.5% CPU use with 8 MPI tasks x no OpenMP threads

MPI task timing breakdown:
Section |  min time  |  avg time  |  max time  |%varavg| %total
---------------------------------------------------------------
Pair    | 71.626     | 78.685     | 86.065     |  74.6 | 41.13
Neigh   | 8.5766     | 9.4391     | 10.302     |  23.4 |  4.93
Comm    | 86.372     | 94.238     | 101.93     |  73.2 | 49.26
Output  | 2.0912     | 2.0945     | 2.0985     |   0.2 |  1.09
Modify  | 6.014      | 6.4677     | 6.7734     |  10.0 |  3.38
Other   |            | 0.3839     |            |       |  0.20

Nlocal:    1601.88 ave 1623 max 1585 min
Histogram: 1 0 2 2 0 0 1 1 0 1
Nghost:    2597.38 ave 3073 max 2112 min
Histogram: 4 0 0 0 0 0 0 0 0 4
Neighs:    0 ave 0 max 0 min
Histogram: 8 0 0 0 0 0 0 0 0 0
FullNghs:  83910.5 ave 88499 max 79115 min
Histogram: 3 1 0 0 0 0 0 0 0 4

Total # of neighbors = 671284
Ave neighs/atom = 52.3827
Neighbor list builds = 1500
Dangerous builds = 1493

#variable currentFx equal ${Fx}
#label pushLoop
#variable i loop 10
#    print ${i}
#    variable Fx equal ${currentFx}+(step-((${i}-1)*1000)-${loadStep})*0.0000001
#    fix addforce sphereUpperG addforce v_Fx 0 v_Fz
#    run 1000
#    variable Fx equal ${Fx}
#    run 1000
#next i
#jump SELF pushLoop
Total wall time: 0:03:11
