LAMMPS (27 Aug 2016-ICMS)
# Script to measure normal forces on the surface of the slab?
include "system.in.init"
  units         metal
  boundary      p p p
  atom_style    atomic
  pair_style    vashishta
  #pair_modify  mix arithmetic  # LEAVE THIS UNSPECIFIED!
read_restart ${filename}
read_restart hold28000.restart
  orthogonal box = (0 0 0) to (106.8 106.8 71.8)
  2 by 2 by 2 MPI processor grid
  48511 atoms
include "system.in.settings"
  pair_coeff  * *  SiO2.vashishta Si O
Reading potential file SiO2.vashishta with DATE: 2015-10-14
  pair_modify table 16
  pair_modify tabinner 0.1

variable N equal 20000
variable T equal 500
variable compressionLength equal 0


# -----------Freeze the "bottom" of the slab ----------------
fix freezeID bottomAtomsID setforce 0 0 0
velocity bottomAtomsID set 0 0 0


#restart 1000 hold*.restart
neighbor	0.3 bin
neigh_modify	delay 10

thermo		100
timestep	0.002

#dump myDump all atom 50 dumps/holding_half_*.dump

#Move the top z-boundary downwards
#fix deform all deform 1 z delta 0 -${compressionLength} remap x


fix nvt all nvt temp ${T} ${T} 1.0
fix nvt all nvt temp 500 ${T} 1.0
fix nvt all nvt temp 500 500 1.0
Resetting global state of Fix nvt Style nvt from restart file info

compute chunkID all chunk/atom bin/2d x 0 1.78 y 0 1.78
compute stressID all stress/atom NULL
fix fixChunkID all ave/chunk 1 1 10 chunkID c_stressID[3] file positionsInChunk.xyz

run ${N}
run 20000
Neighbor list info ...
  1 neighbor list requests
  update every 1 steps, delay 10 steps, check yes
  max neighbors/atom: 2000, page size: 100000
  master list distance cutoff = 5.8
  ghost atom cutoff = 5.8
  binsize = 2.9 -> bins = 37 37 25
Memory usage per processor = 8.60851 Mbytes
Step Temp E_pair E_mol TotEng Press 
   28000    500.45835   -158632.67            0   -155494.59    59213.045 
   28100    498.01451   -158628.24            0   -155505.49    59105.223 
   28200     499.3293    -158647.2            0    -155516.2    58821.798 
   28300    498.29079   -158650.76            0   -155526.27    58334.756 
   28400    498.72419    -158662.7            0   -155535.49    59495.917 
   28500    497.73597    -158663.8            0   -155542.79    59222.846 
   28600    497.51022   -158668.31            0   -155548.72     59162.05 
   28700    495.25913   -158658.46            0   -155552.98    59464.719 
   28800    496.62856   -158669.41            0   -155555.35    58223.984 
   28900    493.71966   -158651.31            0   -155555.48    58870.894 
   29000    498.50236   -158679.96            0   -155554.15     58664.36 
   29100    498.04282   -158673.69            0   -155550.76    58658.634 
   29200    498.75237    -158673.3            0   -155545.92    58515.842 
   29300    497.08416   -158656.38            0   -155539.46    58508.563 
   29400    497.10834   -158648.57            0    -155531.5    59206.662 
   29500    499.24162   -158653.43            0   -155522.98    58815.833 
   29600    498.53312   -158640.02            0   -155514.01    59080.915 
   29700       500.35   -158642.25            0   -155504.85    58732.271 
   29800    500.18022   -158632.04            0   -155495.71    58923.334 
   29900      504.022    -158647.8            0   -155487.38    58888.495 
   30000    500.42561   -158617.15            0   -155479.28     58734.56 
   30100    502.87457   -158626.21            0   -155472.98    58898.964 
   30200    502.51677   -158618.86            0   -155467.87    58569.394 
   30300    503.62714   -158622.07            0   -155464.12    58599.667 
   30400    503.40885   -158618.98            0    -155462.4    58543.691 
   30500    501.00666   -158603.83            0   -155462.32     58374.58 
   30600    503.48533   -158621.55            0   -155464.49     59406.38 
   30700    503.69125   -158626.57            0   -155468.22    59287.264 
   30800    502.05468   -158621.73            0   -155473.64    58828.448 
   30900    503.57207   -158638.21            0   -155480.61    59187.011 
   31000    503.71075   -158647.47            0   -155488.99    58939.004 
   31100    498.41046   -158622.97            0   -155497.73    58990.301 
   31200    500.33007   -158644.88            0    -155507.6    58573.623 
   31300    499.45403   -158649.21            0   -155517.43    58282.275 
   31400    498.98622    -158655.6            0   -155526.75    58929.283 
   31500    498.22754   -158659.78            0   -155535.68    58623.781 
   31600    499.17517      -158674            0   -155543.97    58533.036 
   31700    498.08533   -158674.31            0   -155551.11    58721.864 
   31800    497.70142   -158677.68            0   -155556.89    58897.204 
   31900    496.71478   -158676.08            0   -155561.48    58831.007 
   32000    498.79945   -158692.36            0   -155564.69     58554.66 
   32100    497.23605   -158684.02            0   -155566.14    58575.675 
   32200    495.15216    -158670.6            0    -155565.8    58690.887 
   32300    497.12051   -158681.15            0      -155564    58664.603 
   32400     496.2667   -158672.32            0   -155560.53    58615.383 
   32500    500.01451   -158691.29            0   -155555.99    58566.018 
   32600    496.10556   -158660.11            0   -155549.33     58309.12 
   32700    499.31009   -158673.35            0   -155542.47    58738.492 
   32800    498.83567   -158662.75            0   -155534.85    58923.702 
   32900    501.99208   -158674.96            0   -155527.27    58784.365 
   33000    503.19491   -158674.91            0   -155519.68    58613.161 
   33100    502.06516    -158660.7            0   -155512.54     58855.93 
   33200    502.94888   -158660.09            0    -155506.4    58601.918 
   33300    503.49294   -158658.55            0   -155501.45    58478.542 
   33400    499.26189   -158627.93            0   -155497.36    58796.758 
   33500    502.42477   -158645.41            0      -155495    58317.322 
   33600    502.93549   -158647.45            0   -155493.84    58603.944 
   33700    502.30125   -158643.37            0   -155493.73    58752.224 
   33800     499.5914   -158627.71            0   -155495.07    58520.741 
   33900    501.61082   -158643.39            0   -155498.09    58853.933 
   34000    501.86416   -158649.42            0   -155502.53      58877.6 
   34100    504.21031   -158670.33            0   -155508.72    58588.585 
   34200    502.56056   -158666.91            0   -155515.64    58666.532 
   34300    499.38006   -158655.17            0   -155523.85    58623.781 
   34400    502.60104   -158684.04            0   -155532.52    58664.903 
   34500    500.14601    -158677.9            0   -155541.78    58904.112 
   34600    499.26542    -158681.2            0    -155550.6    58602.057 
   34700    498.06542   -158682.12            0   -155559.05    58486.806 
   34800    498.79906   -158694.06            0   -155566.39    58575.874 
   34900    495.24541    -158677.9            0   -155572.51    58464.151 
   35000    497.14514   -158694.41            0   -155577.11    58540.789 
   35100    494.50233   -158680.95            0   -155580.21    58614.195 
   35200    496.77518   -158696.84            0   -155581.85    58749.427 
   35300    498.59771   -158708.32            0   -155581.91    59256.352 
   35400    497.16544   -158697.78            0   -155580.35    58631.112 
   35500    497.77373   -158698.83            0   -155577.58    58692.173 
   35600    498.32908   -158697.95            0   -155573.22    58976.383 
   35700    498.71785   -158695.05            0   -155567.88    58369.873 
   35800    498.41097   -158686.61            0   -155561.37    58763.217 
   35900    499.22464   -158684.56            0   -155554.21    59139.019 
   36000    501.57209   -158691.87            0   -155546.81    59084.343 
   36100    502.27961   -158688.84            0   -155539.34    58993.984 
   36200    499.94328   -158666.71            0   -155531.86    58827.213 
   36300    501.27643   -158668.24            0   -155525.03     58822.65 
   36400    502.07986   -158666.99            0   -155518.74    58324.473 
   36500    502.64495   -158665.22            0   -155513.43    58888.937 
   36600    504.64275   -158673.99            0   -155509.67    58209.826 
   36700    501.14908   -158648.99            0   -155506.58     58574.79 
   36800    502.58203   -158656.46            0   -155505.07     58505.86 
   36900    502.00384   -158653.49            0   -155505.72    59126.943 
   37000    504.39731   -158670.66            0   -155507.88    58550.741 
   37100    504.64129   -158675.52            0   -155511.22    59277.913 
   37200    502.37952   -158666.21            0   -155516.09    58965.323 
   37300     501.3282   -158665.57            0   -155522.04    59102.636 
   37400    502.87283   -158682.73            0   -155529.51    58536.371 
   37500    501.95412    -158684.8            0   -155537.34    58501.274 
   37600    499.91824   -158680.16            0   -155545.46    58247.633 
   37700    498.94294   -158682.14            0   -155553.56     58744.16 
   37800    499.14052    -158691.4            0   -155561.59    58734.837 
   37900    499.64833   -158702.26            0   -155569.26    58803.862 
   38000    499.45189   -158707.86            0   -155576.09    58514.102 
   38100    495.84183   -158690.92            0   -155581.79    58994.012 
   38200    497.08489   -158703.47            0   -155586.55    58650.419 
   38300    497.03174   -158706.94            0   -155590.35    58382.963 
   38400    499.24258   -158723.37            0   -155592.92    58669.681 
   38500    499.00485   -158723.08            0   -155594.11    58268.837 
   38600    496.93722   -158709.41            0   -155593.41    58636.686 
   38700    495.31822   -158697.58            0   -155591.74    58849.985 
   38800    499.79151   -158722.33            0   -155588.43    58727.726 
   38900    495.14077   -158688.26            0   -155583.53    58280.514 
   39000     496.5414   -158691.64            0   -155578.12    58493.564 
   39100    497.77946    -158692.6            0   -155571.31    58322.237 
   39200    498.85687   -158691.98            0   -155563.94    58573.263 
   39300    499.84209   -158690.53            0   -155556.32    58381.746 
   39400    498.71209   -158675.85            0   -155548.72    58551.881 
   39500    500.51882   -158679.86            0    -155541.4    58593.858 
   39600    503.31543   -158690.94            0   -155534.95    58594.459 
   39700    501.72942   -158675.05            0   -155529.01    58937.081 
   39800    502.18689   -158673.59            0   -155524.67    58393.267 
   39900    503.88391   -158681.01            0   -155521.45     58773.81 
   40000     501.7994   -158665.68            0   -155519.19    59078.692 
   40100    503.10273    -158673.4            0   -155518.74    58286.108 
   40200    503.79865   -158678.91            0   -155519.89    58604.472 
   40300    502.48457   -158672.95            0   -155522.17     58723.33 
   40400    501.67786   -158671.59            0   -155525.87    58714.247 
   40500    503.19964   -158686.32            0   -155531.06    58464.383 
   40600    501.03005   -158678.91            0   -155537.24     58736.13 
   40700    500.42687   -158681.95            0   -155544.07    58761.579 
   40800    500.23352   -158688.66            0   -155551.99    58492.817 
   40900    500.55062   -158698.55            0   -155559.89    58389.574 
   41000    499.42639   -158699.55            0   -155567.94    58636.671 
   41100    497.12372   -158692.34            0   -155575.17    58959.028 
   41200    500.02387   -158717.56            0   -155582.21    58986.242 
   41300    498.11622   -158711.55            0   -155588.16    58928.675 
   41400     500.0791   -158728.62            0   -155592.92    58775.782 
   41500    496.98472   -158712.56            0   -155596.26     58416.56 
   41600    496.82296   -158713.58            0    -155598.3    58731.679 
   41700    497.49678   -158718.31            0    -155598.8    58443.928 
   41800    498.64648    -158724.7            0   -155597.98    58048.958 
   41900    495.79951   -158704.54            0   -155595.67    58475.147 
   42000    496.86805   -158707.83            0   -155592.27    58634.081 
   42100    496.90986   -158703.74            0   -155587.91     58862.51 
   42200    496.53118   -158696.09            0   -155582.64    58481.572 
   42300    498.69473   -158703.76            0   -155576.74     58680.84 
   42400     498.3727      -158695            0      -155570    58971.814 
   42500    500.05194   -158698.65            0   -155563.12    58483.787 
   42600    498.85642   -158683.97            0   -155555.93    58555.276 
   42700    501.71522   -158694.73            0   -155548.77    58756.951 
   42800    500.33772   -158679.28            0   -155541.96    58330.067 
   42900    502.68809   -158687.93            0   -155535.87     58113.81 
   43000    503.17793   -158685.98            0   -155530.85    58694.975 
   43100    503.76531   -158686.01            0    -155527.2    59052.542 
   43200    504.12502   -158685.82            0   -155524.75    58580.868 
   43300    502.10136   -158672.41            0   -155524.03      58854.5 
   43400    500.95814   -158666.24            0   -155525.03    58918.734 
   43500    504.55524    -158691.6            0   -155527.83    58582.408 
   43600    499.72829   -158664.81            0   -155531.31    58916.875 
   43700     499.7808   -158670.49            0   -155536.66    58438.928 
   43800    500.07917   -158678.48            0   -155542.78      58345.9 
   43900    499.51385   -158681.63            0   -155549.47    58179.075 
   44000    499.36765   -158688.07            0   -155556.83    58636.069 
   44100    499.43688   -158695.78            0    -155564.1    58121.226 
   44200    501.75776   -158717.97            0   -155571.74    58768.606 
   44300    498.85513   -158706.84            0   -155578.82    58349.831 
   44400    499.40832   -158717.38            0   -155585.89    58596.271 
   44500    495.16458   -158696.27            0   -155591.39    58714.377 
   44600    497.83418   -158718.83            0   -155597.21    59002.497 
   44700    497.41607   -158720.81            0    -155601.8    58485.678 
   44800    497.20701   -158723.08            0   -155605.39    58629.034 
   44900    495.79287   -158716.02            0    -155607.2    58732.373 
   45000    495.29808   -158713.11            0   -155607.38     58417.99 
   45100    495.43525   -158712.98            0    -155606.4    58588.886 
   45200    500.12915   -158740.07            0   -155604.06    58694.244 
   45300     498.6659   -158726.72            0   -155599.88    58322.878 
   45400    497.29966   -158712.55            0   -155594.28    58033.192 
   45500    498.40388   -158713.35            0   -155588.15    58527.409 
   45600    499.54016   -158713.43            0   -155581.11    58831.181 
   45700    498.51005   -158699.83            0   -155573.97    58990.481 
   45800    497.81681   -158688.19            0   -155566.68    58406.418 
   45900    500.44139   -158697.92            0   -155559.95    58550.098 
   46000    499.60761   -158686.45            0   -155553.71    58645.859 
   46100    503.04423   -158702.49            0   -155548.19    58743.852 
   46200    502.65761   -158695.47            0    -155543.6    58086.419 
   46300    503.21436   -158695.34            0   -155539.98    58480.637 
   46400    502.01352   -158685.56            0   -155537.73    58094.061 
   46500    502.82315   -158690.03            0   -155537.12    58565.037 
   46600    503.72224   -158696.67            0   -155538.12    58888.916 
   46700    505.26232   -158708.85            0   -155540.65    58689.671 
   46800    502.27775   -158693.96            0   -155544.47    58687.843 
   46900     503.2846   -158705.77            0   -155549.97    58575.607 
   47000     503.2205   -158711.74            0   -155556.34    58334.862 
   47100    500.07539   -158699.27            0   -155563.59    58545.601 
   47200    501.46277   -158716.05            0   -155571.68     58464.07 
   47300    498.30552    -158704.6            0   -155580.02     58253.08 
   47400    498.65128    -158714.8            0   -155588.05    58422.733 
   47500    499.46338   -158727.96            0   -155596.12    58330.202 
   47600     499.2818      -158734            0    -155603.3      58634.9 
   47700    498.66164   -158736.28            0   -155609.47    58906.685 
   47800    495.21179   -158719.69            0   -155614.51    58571.539 
   47900    496.44563   -158731.46            0   -155618.55    58473.893 
   48000    499.83981   -158755.78            0   -155621.58    58572.806 
Loop time of 690.749 on 8 procs for 20000 steps with 48511 atoms

Performance: 5.003 ns/day, 4.797 hours/ns, 28.954 timesteps/s
77.2% CPU use with 8 MPI tasks x no OpenMP threads

MPI task timing breakdown:
Section |  min time  |  avg time  |  max time  |%varavg| %total
---------------------------------------------------------------
Pair    | 358.11     | 441.25     | 532.66     | 372.2 | 63.88
Neigh   | 33.215     | 42.336     | 51.767     | 131.3 |  6.13
Comm    | 79.25      | 178.86     | 273.79     | 667.9 | 25.89
Output  | 1.2252     | 2.8414     | 3.0732     |  36.2 |  0.41
Modify  | 19.943     | 22.881     | 38.15      | 121.6 |  3.31
Other   |            | 2.584      |            |       |  0.37

Nlocal:    6063.88 ave 7267 max 4852 min
Histogram: 4 0 0 0 0 0 0 0 0 4
Nghost:    5403.12 ave 5549 max 5252 min
Histogram: 3 1 0 0 0 0 0 0 0 4
Neighs:    0 ave 0 max 0 min
Histogram: 8 0 0 0 0 0 0 0 0 0
FullNghs:  357295 ave 430996 max 282861 min
Histogram: 4 0 0 0 0 0 0 0 0 4

Total # of neighbors = 2858362
Ave neighs/atom = 58.9219
Neighbor list builds = 2000
Dangerous builds = 2000
Total wall time: 0:11:31
