LAMMPS (7 Sep 2016-ICMS)
WARNING: OMP_NUM_THREADS environment is not set. Defaulting to 1 thread. (../comm.cpp:90)
  using 1 OpenMP thread(s) per MPI task
#include "system.in" 
# 
# 
#velocity all create 1 277387 mom yes 
#include "system.prepare" 
package omp 2 
set 2 OpenMP thread(s) per MPI task
using multi-threaded neighbor list subroutines
suffix omp 
variable filename string restartFiles/squeeze20000.restart 
units metal 
boundary p p p 
atom_style atomic 
pair_style vashishta 
#pair_modify mix arithmetic # LEAVE THIS UNSPECIFIED! 
read_restart ${filename} 
read_restart restartFiles/squeeze20000.restart 
WARNING: Restart file used different # of processors (../read_restart.cpp:717)
  orthogonal box = (0 0 0) to (106.8 106.8 55.44)
  1 by 1 by 1 MPI processor grid
  31126 atoms
pair_coeff * * SiO2.vashishta Si O 
Reading potential file SiO2.vashishta with DATE: 2015-10-14
pair_modify table 16 
pair_modify tabinner 0.1 
fix freezeID bottomAtomsID setforce 0 0 0 
velocity bottomAtomsID set 0 0 0 
variable N equal 10000 
variable T equal 293 
variable compressionLength equal 10 
neighbor 0.3 bin 
neigh_modify delay 10 
thermo 100 
timestep 0.002 
fix nvt all nvt temp ${T} ${T} 1.0 
fix nvt all nvt temp 293 ${T} 1.0 
fix nvt all nvt temp 293 293 1.0 
Resetting global state of Fix nvt Style nvt from restart file info
#restart 1000 restartFiles/squeeze*.restart 
#dump myDump all atom 100 dumps/SiO2_*.dump 
fix deform all deform 1 z delta 0 -${compressionLength} remap x 
fix deform all deform 1 z delta 0 -10 remap x 
run 1 pre yes post no start 20000 stop 30000
Last active /omp style is pair_style vashishta/omp
Neighbor list info ...
  1 neighbor list requests
  update every 1 steps, delay 10 steps, check yes
  max neighbors/atom: 2000, page size: 100000
  master list distance cutoff = 5.8
  ghost atom cutoff = 5.8
  binsize = 2.9 -> bins = 37 37 20
Memory usage per processor = 13.8246 Mbytes
Step Temp E_pair E_mol TotEng Press Volume 
   20000    294.27909   -101315.04            0   -100131.09    63664.434    632361.95 
   20001    294.59634   -101316.27            0   -100131.04    63621.069    632350.54 
Loop time of 0.0320151 on 2 procs for 1 steps with 31126 atoms

212.4% CPU use with 1 MPI tasks x 2 OpenMP threads
run 1 pre no post no start 20000 stop 30000
Step Temp E_pair E_mol TotEng Press Volume 
   20001    294.59634   -101316.27            0   -100131.04    63621.069    632350.54 
   20002     294.8923   -101317.13            0   -100130.71    63595.471    632339.13 
Loop time of 0.0343709 on 2 procs for 1 steps with 31126 atoms

221.1% CPU use with 1 MPI tasks x 2 OpenMP threads
run 1 pre no post no start 20000 stop 30000
Step Temp E_pair E_mol TotEng Press Volume 
   20002     294.8923   -101317.13            0   -100130.71    63595.471    632339.13 
   20003    295.18282   -101318.01            0   -100130.42    63571.672    632327.73 
Loop time of 0.0334558 on 2 procs for 1 steps with 31126 atoms

215.2% CPU use with 1 MPI tasks x 2 OpenMP threads
run 1 pre no post no start 20000 stop 30000
Step Temp E_pair E_mol TotEng Press Volume 
   20003    295.18282   -101318.01            0   -100130.42    63571.672    632327.73 
   20004    295.36977   -101318.48            0   -100130.15    63552.984    632316.32 
Loop time of 0.0337219 on 2 procs for 1 steps with 31126 atoms

225.4% CPU use with 1 MPI tasks x 2 OpenMP threads
run 1 pre no post no start 20000 stop 30000
Step Temp E_pair E_mol TotEng Press Volume 
   20004    295.36977   -101318.48            0   -100130.15    63552.984    632316.32 
   20005    295.32402   -101317.98            0   -100129.83    63544.628    632304.91 
Loop time of 0.028868 on 2 procs for 1 steps with 31126 atoms

221.7% CPU use with 1 MPI tasks x 2 OpenMP threads
run 1 pre no post no start 20000 stop 30000
Step Temp E_pair E_mol TotEng Press Volume 
   20005    295.32402   -101317.98            0   -100129.83    63544.628    632304.91 
   20006    295.05652   -101316.53            0   -100129.46    63545.127    632293.51 
Loop time of 0.0292981 on 2 procs for 1 steps with 31126 atoms

204.8% CPU use with 1 MPI tasks x 2 OpenMP threads
run 1 pre no post no start 20000 stop 30000
Step Temp E_pair E_mol TotEng Press Volume 
   20006    295.05652   -101316.53            0   -100129.46    63545.127    632293.51 
   20007    294.74859   -101314.92            0   -100129.08    63547.587     632282.1 
Loop time of 0.0284879 on 2 procs for 1 steps with 31126 atoms

196.6% CPU use with 1 MPI tasks x 2 OpenMP threads
run 1 pre no post no start 20000 stop 30000
Step Temp E_pair E_mol TotEng Press Volume 
   20007    294.74859   -101314.92            0   -100129.08    63547.587     632282.1 
   20008    294.61783   -101314.05            0   -100128.73    63543.859     632270.7 
Loop time of 0.0297568 on 2 procs for 1 steps with 31126 atoms

201.6% CPU use with 1 MPI tasks x 2 OpenMP threads
run 1 pre no post no start 20000 stop 30000
Step Temp E_pair E_mol TotEng Press Volume 
   20008    294.61783   -101314.05            0   -100128.73    63543.859     632270.7 
   20009    294.75537   -101314.31            0   -100128.45    63532.727    632259.29 
Loop time of 0.0283501 on 2 procs for 1 steps with 31126 atoms

197.5% CPU use with 1 MPI tasks x 2 OpenMP threads
run 1 pre no post no start 20000 stop 30000
Step Temp E_pair E_mol TotEng Press Volume 
   20009    294.75537   -101314.31            0   -100128.45    63532.727    632259.29 
   20010    295.04382   -101315.23            0    -100128.2    63521.874    632247.88 
Loop time of 0.0683179 on 2 procs for 1 steps with 31126 atoms

204.9% CPU use with 1 MPI tasks x 2 OpenMP threads
run 1 pre no post no start 20000 stop 30000
Step Temp E_pair E_mol TotEng Press Volume 
   20010    295.04382   -101315.23            0    -100128.2    63521.874    632247.88 
   20011    295.22437   -101315.69            0   -100127.94    63524.142    632236.48 
Loop time of 0.0284421 on 2 procs for 1 steps with 31126 atoms

196.9% CPU use with 1 MPI tasks x 2 OpenMP threads
run 1 pre no post no start 20000 stop 30000
Step Temp E_pair E_mol TotEng Press Volume 
   20011    295.22437   -101315.69            0   -100127.94    63524.142    632236.48 
   20012    295.08997   -101314.83            0   -100127.62    63548.199    632225.07 
Loop time of 0.030019 on 2 procs for 1 steps with 31126 atoms

199.9% CPU use with 1 MPI tasks x 2 OpenMP threads
run 1 pre no post no start 20000 stop 30000
Step Temp E_pair E_mol TotEng Press Volume 
   20012    295.08997   -101314.83            0   -100127.62    63548.199    632225.07 
   20013    294.64884   -101312.68            0   -100127.25     63593.54    632213.66 
Loop time of 0.029176 on 2 procs for 1 steps with 31126 atoms

205.6% CPU use with 1 MPI tasks x 2 OpenMP threads
run 1 pre no post no start 20000 stop 30000
Step Temp E_pair E_mol TotEng Press Volume 
   20013    294.64884   -101312.68            0   -100127.25     63593.54    632213.66 
   20014    294.12067   -101310.16            0   -100126.85    63648.125    632202.26 
Loop time of 0.029716 on 2 procs for 1 steps with 31126 atoms

201.9% CPU use with 1 MPI tasks x 2 OpenMP threads
run 1 pre no post no start 20000 stop 30000
Step Temp E_pair E_mol TotEng Press Volume 
   20014    294.12067   -101310.16            0   -100126.85    63648.125    632202.26 
   20015     293.8047   -101308.52            0   -100126.48    63694.663    632190.85 
Loop time of 0.0286701 on 2 procs for 1 steps with 31126 atoms

209.3% CPU use with 1 MPI tasks x 2 OpenMP threads
run 1 pre no post no start 20000 stop 30000
Step Temp E_pair E_mol TotEng Press Volume 
   20015     293.8047   -101308.52            0   -100126.48    63694.663    632190.85 
   20016    293.92705   -101308.69            0   -100126.15    63719.325    632179.45 
Loop time of 0.030767 on 2 procs for 1 steps with 31126 atoms

195.0% CPU use with 1 MPI tasks x 2 OpenMP threads
run 1 pre no post no start 20000 stop 30000
Step Temp E_pair E_mol TotEng Press Volume 
   20016    293.92705   -101308.69            0   -100126.15    63719.325    632179.45 
   20017     294.5224   -101310.82            0   -100125.89    63717.664    632168.04 
Loop time of 0.029495 on 2 procs for 1 steps with 31126 atoms

189.9% CPU use with 1 MPI tasks x 2 OpenMP threads
run 1 pre no post no start 20000 stop 30000
Step Temp E_pair E_mol TotEng Press Volume 
   20017     294.5224   -101310.82            0   -100125.89    63717.664    632168.04 
   20018    295.39658   -101314.11            0   -100125.66    63696.071    632156.63 
Loop time of 0.030632 on 2 procs for 1 steps with 31126 atoms

169.8% CPU use with 1 MPI tasks x 2 OpenMP threads
run 1 pre no post no start 20000 stop 30000
Step Temp E_pair E_mol TotEng Press Volume 
   20018    295.39658   -101314.11            0   -100125.66    63696.071    632156.63 
   20019    296.22129   -101317.18            0   -100125.42    63669.053    632145.23 
Loop time of 0.0290291 on 2 procs for 1 steps with 31126 atoms

220.5% CPU use with 1 MPI tasks x 2 OpenMP threads
run 1 pre no post no start 20000 stop 30000
Step Temp E_pair E_mol TotEng Press Volume 
   20019    296.22129   -101317.18            0   -100125.42    63669.053    632145.23 
   20020    296.71835   -101318.89            0   -100125.13     63649.91    632133.82 
Loop time of 0.0698469 on 2 procs for 1 steps with 31126 atoms

200.4% CPU use with 1 MPI tasks x 2 OpenMP threads
run 1 pre no post no start 20000 stop 30000
Step Temp E_pair E_mol TotEng Press Volume 
   20020    296.71835   -101318.89            0   -100125.13     63649.91    632133.82 
   20021    296.78117   -101318.81            0   -100124.79    63645.389    632122.41 
Loop time of 0.0288339 on 2 procs for 1 steps with 31126 atoms

208.1% CPU use with 1 MPI tasks x 2 OpenMP threads
run 1 pre no post no start 20000 stop 30000
Step Temp E_pair E_mol TotEng Press Volume 
   20021    296.78117   -101318.81            0   -100124.79    63645.389    632122.41 
   20022    296.46336   -101317.18            0   -100124.44    63655.631    632111.01 
Loop time of 0.0289209 on 2 procs for 1 steps with 31126 atoms

207.5% CPU use with 1 MPI tasks x 2 OpenMP threads
run 1 pre no post no start 20000 stop 30000
Step Temp E_pair E_mol TotEng Press Volume 
   20022    296.46336   -101317.18            0   -100124.44    63655.631    632111.01 
   20023    295.88905   -101314.52            0   -100124.09    63677.056     632099.6 
Loop time of 0.029211 on 2 procs for 1 steps with 31126 atoms

191.7% CPU use with 1 MPI tasks x 2 OpenMP threads
run 1 pre no post no start 20000 stop 30000
Step Temp E_pair E_mol TotEng Press Volume 
   20023    295.88905   -101314.52            0   -100124.09    63677.056     632099.6 
   20024    295.17627   -101311.32            0   -100123.76    63705.342     632088.2 
Loop time of 0.0303409 on 2 procs for 1 steps with 31126 atoms

197.8% CPU use with 1 MPI tasks x 2 OpenMP threads
run 1 pre no post no start 20000 stop 30000
Step Temp E_pair E_mol TotEng Press Volume 
   20024    295.17627   -101311.32            0   -100123.76    63705.342     632088.2 
   20025    294.41895   -101307.94            0   -100123.43    63736.909    632076.79 
Loop time of 0.0293291 on 2 procs for 1 steps with 31126 atoms

204.6% CPU use with 1 MPI tasks x 2 OpenMP threads
run 1 pre no post no start 20000 stop 30000
Step Temp E_pair E_mol TotEng Press Volume 
   20025    294.41895   -101307.94            0   -100123.43    63736.909    632076.79 
   20026    293.70264   -101304.72            0   -100123.09    63768.438    632065.38 
Loop time of 0.0302131 on 2 procs for 1 steps with 31126 atoms

185.3% CPU use with 1 MPI tasks x 2 OpenMP threads
run 1 pre no post no start 20000 stop 30000
Step Temp E_pair E_mol TotEng Press Volume 
   20026    293.70264   -101304.72            0   -100123.09    63768.438    632065.38 
   20027    293.11389   -101302.02            0   -100122.76    63794.941    632053.98 
Loop time of 0.0297291 on 2 procs for 1 steps with 31126 atoms

201.8% CPU use with 1 MPI tasks x 2 OpenMP threads
run 1 pre no post no start 20000 stop 30000
Step Temp E_pair E_mol TotEng Press Volume 
   20027    293.11389   -101302.02            0   -100122.76    63794.941    632053.98 
   20028      292.744   -101300.19            0   -100122.42    63812.397    632042.57 
Loop time of 0.031338 on 2 procs for 1 steps with 31126 atoms

178.7% CPU use with 1 MPI tasks x 2 OpenMP threads
run 1 pre no post no start 20000 stop 30000
Step Temp E_pair E_mol TotEng Press Volume 
   20028      292.744   -101300.19            0   -100122.42    63812.397    632042.57 
   20029     292.6836   -101299.62            0   -100122.09     63817.05    632031.16 
Loop time of 0.0290439 on 2 procs for 1 steps with 31126 atoms

220.4% CPU use with 1 MPI tasks x 2 OpenMP threads
run 1 pre no post no start 20000 stop 30000
Step Temp E_pair E_mol TotEng Press Volume 
   20029     292.6836   -101299.62            0   -100122.09     63817.05    632031.16 
   20030    292.97299   -101300.48            0   -100121.79    63807.349    632019.76 
Loop time of 0.0672631 on 2 procs for 1 steps with 31126 atoms

208.1% CPU use with 1 MPI tasks x 2 OpenMP threads
run 1 pre no post no start 20000 stop 30000
Step Temp E_pair E_mol TotEng Press Volume 
   20030    292.97299   -101300.48            0   -100121.79    63807.349    632019.76 
   20031    293.54585   -101302.51            0   -100121.51    63786.276    632008.35 
Loop time of 0.0281801 on 2 procs for 1 steps with 31126 atoms

198.7% CPU use with 1 MPI tasks x 2 OpenMP threads
run 1 pre no post no start 20000 stop 30000
Step Temp E_pair E_mol TotEng Press Volume 
   20031    293.54585   -101302.51            0   -100121.51    63786.276    632008.35 
   20032    294.23673   -101305.02            0   -100121.24    63760.429    631996.95 
Loop time of 0.0292928 on 2 procs for 1 steps with 31126 atoms

204.8% CPU use with 1 MPI tasks x 2 OpenMP threads
run 1 pre no post no start 20000 stop 30000
Step Temp E_pair E_mol TotEng Press Volume 
   20032    294.23673   -101305.02            0   -100121.24    63760.429    631996.95 
   20033    294.84473   -101307.19            0   -100120.97    63738.633    631985.54 
Loop time of 0.0283792 on 2 procs for 1 steps with 31126 atoms

211.4% CPU use with 1 MPI tasks x 2 OpenMP threads
run 1 pre no post no start 20000 stop 30000
Step Temp E_pair E_mol TotEng Press Volume 
   20033    294.84473   -101307.19            0   -100120.97    63738.633    631985.54 
   20034    295.21501   -101308.37            0   -100120.66    63727.851    631974.13 
Loop time of 0.029484 on 2 procs for 1 steps with 31126 atoms

217.1% CPU use with 1 MPI tasks x 2 OpenMP threads
run 1 pre no post no start 20000 stop 30000
Step Temp E_pair E_mol TotEng Press Volume 
   20034    295.21501   -101308.37            0   -100120.66    63727.851    631974.13 
   20035    295.30254   -101308.39            0   -100120.32    63730.294    631962.73 
Loop time of 0.0293601 on 2 procs for 1 steps with 31126 atoms

190.7% CPU use with 1 MPI tasks x 2 OpenMP threads
run 1 pre no post no start 20000 stop 30000
Step Temp E_pair E_mol TotEng Press Volume 
   20035    295.30254   -101308.39            0   -100120.32    63730.294    631962.73 
   20036    295.17385   -101307.52            0   -100119.97    63743.249    631951.32 
Loop time of 0.0292511 on 2 procs for 1 steps with 31126 atoms

218.8% CPU use with 1 MPI tasks x 2 OpenMP threads
run 1 pre no post no start 20000 stop 30000
Step Temp E_pair E_mol TotEng Press Volume 
   20036    295.17385   -101307.52            0   -100119.97    63743.249    631951.32 
   20037    294.94501   -101306.26            0   -100119.63    63761.261    631939.91 
Loop time of 0.0303252 on 2 procs for 1 steps with 31126 atoms

197.9% CPU use with 1 MPI tasks x 2 OpenMP threads
run 1 pre no post no start 20000 stop 30000
Step Temp E_pair E_mol TotEng Press Volume 
   20037    294.94501   -101306.26            0   -100119.63    63761.261    631939.91 
   20038    294.71973   -101305.02            0    -100119.3    63778.269    631928.51 
Loop time of 0.0286069 on 2 procs for 1 steps with 31126 atoms

209.7% CPU use with 1 MPI tasks x 2 OpenMP threads
run 1 pre no post no start 20000 stop 30000
Step Temp E_pair E_mol TotEng Press Volume 
   20038    294.71973   -101305.02            0    -100119.3    63778.269    631928.51 
   20039    294.59075   -101304.16            0   -100118.96    63788.783     631917.1 
Loop time of 0.029197 on 2 procs for 1 steps with 31126 atoms

205.5% CPU use with 1 MPI tasks x 2 OpenMP threads
run 1 pre no post no start 20000 stop 30000
Step Temp E_pair E_mol TotEng Press Volume 
   20039    294.59075   -101304.16            0   -100118.96    63788.783     631917.1 
   20040    294.65879    -101304.1            0   -100118.62    63788.216     631905.7 
Loop time of 0.0696931 on 2 procs for 1 steps with 31126 atoms

195.1% CPU use with 1 MPI tasks x 2 OpenMP threads
run 1 pre no post no start 20000 stop 30000
Step Temp E_pair E_mol TotEng Press Volume 
   20040    294.65879    -101304.1            0   -100118.62    63788.216     631905.7 
   20041    294.97612   -101305.09            0   -100118.33     63775.28    631894.29 
Loop time of 0.0294259 on 2 procs for 1 steps with 31126 atoms

217.5% CPU use with 1 MPI tasks x 2 OpenMP threads
run 1 pre no post no start 20000 stop 30000
Step Temp E_pair E_mol TotEng Press Volume 
   20041    294.97612   -101305.09            0   -100118.33     63775.28    631894.29 
   20042    295.46437   -101306.79            0   -100118.07    63755.584    631882.88 
Loop time of 0.029654 on 2 procs for 1 steps with 31126 atoms

215.8% CPU use with 1 MPI tasks x 2 OpenMP threads
run 1 pre no post no start 20000 stop 30000
Step Temp E_pair E_mol TotEng Press Volume 
   20042    295.46437   -101306.79            0   -100118.07    63755.584    631882.88 
   20043    295.93617   -101308.42            0    -100117.8     63740.14    631871.48 
Loop time of 0.0283561 on 2 procs for 1 steps with 31126 atoms

225.7% CPU use with 1 MPI tasks x 2 OpenMP threads
run 1 pre no post no start 20000 stop 30000
Step Temp E_pair E_mol TotEng Press Volume 
   20043    295.93617   -101308.42            0    -100117.8     63740.14    631871.48 
   20044     296.2223   -101309.27            0    -100117.5     63739.15    631860.07 
Loop time of 0.030215 on 2 procs for 1 steps with 31126 atoms

185.3% CPU use with 1 MPI tasks x 2 OpenMP threads
run 1 pre no post no start 20000 stop 30000
Step Temp E_pair E_mol TotEng Press Volume 
   20044     296.2223   -101309.27            0    -100117.5     63739.15    631860.07 
   20045    296.27735   -101309.16            0   -100117.17    63756.981    631848.66 
Loop time of 0.028584 on 2 procs for 1 steps with 31126 atoms

195.9% CPU use with 1 MPI tasks x 2 OpenMP threads
run 1 pre no post no start 20000 stop 30000
Step Temp E_pair E_mol TotEng Press Volume 
   20045    296.27735   -101309.16            0   -100117.17    63756.981    631848.66 
   20046    296.16696   -101308.38            0   -100116.83    63790.494    631837.26 
Loop time of 0.0313261 on 2 procs for 1 steps with 31126 atoms

204.3% CPU use with 1 MPI tasks x 2 OpenMP threads
run 1 pre no post no start 20000 stop 30000
Step Temp E_pair E_mol TotEng Press Volume 
   20046    296.16696   -101308.38            0   -100116.83    63790.494    631837.26 
   20047    295.97394   -101307.28            0   -100116.51    63833.498    631825.85 
Loop time of 0.028548 on 2 procs for 1 steps with 31126 atoms

196.2% CPU use with 1 MPI tasks x 2 OpenMP threads
run 1 pre no post no start 20000 stop 30000
Step Temp E_pair E_mol TotEng Press Volume 
   20047    295.97394   -101307.28            0   -100116.51    63833.498    631825.85 
   20048    295.72547   -101305.97            0    -100116.2    63881.665    631814.45 
Loop time of 0.0290549 on 2 procs for 1 steps with 31126 atoms

206.5% CPU use with 1 MPI tasks x 2 OpenMP threads
run 1 pre no post no start 20000 stop 30000
Step Temp E_pair E_mol TotEng Press Volume 
   20048    295.72547   -101305.97            0    -100116.2    63881.665    631814.45 
   20049    295.42045   -101304.42            0   -100115.87    63930.766    631803.04 
Loop time of 0.0299928 on 2 procs for 1 steps with 31126 atoms

200.0% CPU use with 1 MPI tasks x 2 OpenMP threads
run 1 pre no post no start 20000 stop 30000
Step Temp E_pair E_mol TotEng Press Volume 
   20049    295.42045   -101304.42            0   -100115.87    63930.766    631803.04 
   20050    295.11443   -101302.83            0   -100115.52    63974.384    631791.63 
Loop time of 0.069582 on 2 procs for 1 steps with 31126 atoms

212.7% CPU use with 1 MPI tasks x 2 OpenMP threads
run 1 pre no post no start 20000 stop 30000
Step Temp E_pair E_mol TotEng Press Volume 
   20050    295.11443   -101302.83            0   -100115.52    63974.384    631791.63 
   20051     294.9359   -101301.76            0   -100115.17    64003.859    631780.23 
Loop time of 0.0283709 on 2 procs for 1 steps with 31126 atoms

211.5% CPU use with 1 MPI tasks x 2 OpenMP threads
run 1 pre no post no start 20000 stop 30000
Step Temp E_pair E_mol TotEng Press Volume 
   20051     294.9359   -101301.76            0   -100115.17    64003.859    631780.23 
   20052     295.0047   -101301.71            0   -100114.84    64013.307    631768.82 
Loop time of 0.028811 on 2 procs for 1 steps with 31126 atoms

208.3% CPU use with 1 MPI tasks x 2 OpenMP threads
run 1 pre no post no start 20000 stop 30000
Step Temp E_pair E_mol TotEng Press Volume 
   20052     295.0047   -101301.71            0   -100114.84    64013.307    631768.82 
   20053     295.3292   -101302.74            0   -100114.56    64004.476    631757.41 
Loop time of 0.0302699 on 2 procs for 1 steps with 31126 atoms

211.4% CPU use with 1 MPI tasks x 2 OpenMP threads
run 1 pre no post no start 20000 stop 30000
Step Temp E_pair E_mol TotEng Press Volume 
   20053     295.3292   -101302.74            0   -100114.56    64004.476    631757.41 
   20054    295.77389   -101304.26            0    -100114.3    63985.112    631746.01 
Loop time of 0.0286739 on 2 procs for 1 steps with 31126 atoms

209.2% CPU use with 1 MPI tasks x 2 OpenMP threads
run 1 pre no post no start 20000 stop 30000
Step Temp E_pair E_mol TotEng Press Volume 
   20054    295.77389   -101304.26            0    -100114.3    63985.112    631746.01 
   20055    296.12389    -101305.4            0   -100114.03    63967.863     631734.6 
Loop time of 0.0305362 on 2 procs for 1 steps with 31126 atoms

196.5% CPU use with 1 MPI tasks x 2 OpenMP threads
run 1 pre no post no start 20000 stop 30000
Step Temp E_pair E_mol TotEng Press Volume 
   20055    296.12389    -101305.4            0   -100114.03    63967.863     631734.6 
   20056    296.19811    -101305.4            0   -100113.73    63964.728     631723.2 
Loop time of 0.029577 on 2 procs for 1 steps with 31126 atoms

202.9% CPU use with 1 MPI tasks x 2 OpenMP threads
run 1 pre no post no start 20000 stop 30000
Step Temp E_pair E_mol TotEng Press Volume 
   20056    296.19811    -101305.4            0   -100113.73    63964.728     631723.2 
   20057    295.94732   -101304.04            0   -100113.38    63980.784    631711.79 
Loop time of 0.0304141 on 2 procs for 1 steps with 31126 atoms

197.3% CPU use with 1 MPI tasks x 2 OpenMP threads
run 1 pre no post no start 20000 stop 30000
Step Temp E_pair E_mol TotEng Press Volume 
   20057    295.94732   -101304.04            0   -100113.38    63980.784    631711.79 
   20058    295.46174   -101301.74            0   -100113.03    64013.233    631700.38 
Loop time of 0.0289168 on 2 procs for 1 steps with 31126 atoms

221.3% CPU use with 1 MPI tasks x 2 OpenMP threads
run 1 pre no post no start 20000 stop 30000
Step Temp E_pair E_mol TotEng Press Volume 
   20058    295.46174   -101301.74            0   -100113.03    64013.233    631700.38 
   20059    294.88437   -101299.07            0   -100112.68    64054.905    631688.98 
Loop time of 0.030899 on 2 procs for 1 steps with 31126 atoms

207.1% CPU use with 1 MPI tasks x 2 OpenMP threads
run 1 pre no post no start 20000 stop 30000
Step Temp E_pair E_mol TotEng Press Volume 
   20059    294.88437   -101299.07            0   -100112.68    64054.905    631688.98 
   20060    294.34917   -101296.57            0   -100112.33    64097.238    631677.57 
Loop time of 0.0698421 on 2 procs for 1 steps with 31126 atoms

200.5% CPU use with 1 MPI tasks x 2 OpenMP threads
run 1 pre no post no start 20000 stop 30000
Step Temp E_pair E_mol TotEng Press Volume 
   20060    294.34917   -101296.57            0   -100112.33    64097.238    631677.57 
   20061    293.98388   -101294.75            0   -100111.99    64131.845    631666.16 
Loop time of 0.028981 on 2 procs for 1 steps with 31126 atoms

207.0% CPU use with 1 MPI tasks x 2 OpenMP threads
run 1 pre no post no start 20000 stop 30000
Step Temp E_pair E_mol TotEng Press Volume 
   20061    293.98388   -101294.75            0   -100111.99    64131.845    631666.16 
   20062    293.88415   -101294.04            0   -100111.68    64151.906    631654.76 
Loop time of 0.0291049 on 2 procs for 1 steps with 31126 atoms

192.4% CPU use with 1 MPI tasks x 2 OpenMP threads
run 1 pre no post no start 20000 stop 30000
Step Temp E_pair E_mol TotEng Press Volume 
   20062    293.88415   -101294.04            0   -100111.68    64151.906    631654.76 
   20063    294.02318   -101294.34            0   -100111.41    64156.871    631643.35 
Loop time of 0.0311952 on 2 procs for 1 steps with 31126 atoms

179.5% CPU use with 1 MPI tasks x 2 OpenMP threads
run 1 pre no post no start 20000 stop 30000
Step Temp E_pair E_mol TotEng Press Volume 
   20063    294.02318   -101294.34            0   -100111.41    64156.871    631643.35 
   20064    294.22001   -101294.87            0   -100111.16    64153.811    631631.95 
Loop time of 0.0287251 on 2 procs for 1 steps with 31126 atoms

208.9% CPU use with 1 MPI tasks x 2 OpenMP threads
run 1 pre no post no start 20000 stop 30000
Step Temp E_pair E_mol TotEng Press Volume 
   20064    294.22001   -101294.87            0   -100111.16    64153.811    631631.95 
   20065     294.2723   -101294.78            0   -100110.86    64152.664    631620.54 
Loop time of 0.028712 on 2 procs for 1 steps with 31126 atoms

209.0% CPU use with 1 MPI tasks x 2 OpenMP threads
run 1 pre no post no start 20000 stop 30000
Step Temp E_pair E_mol TotEng Press Volume 
   20065     294.2723   -101294.78            0   -100110.86    64152.664    631620.54 
   20066    294.13403   -101293.87            0    -100110.5    64157.061    631609.13 
Loop time of 0.0299761 on 2 procs for 1 steps with 31126 atoms

200.2% CPU use with 1 MPI tasks x 2 OpenMP threads
run 1 pre no post no start 20000 stop 30000
Step Temp E_pair E_mol TotEng Press Volume 
   20066    294.13403   -101293.87            0    -100110.5    64157.061    631609.13 
   20067    293.94249   -101292.73            0   -100110.13    64161.978    631597.73 
Loop time of 0.0288889 on 2 procs for 1 steps with 31126 atoms

207.7% CPU use with 1 MPI tasks x 2 OpenMP threads
run 1 pre no post no start 20000 stop 30000
Step Temp E_pair E_mol TotEng Press Volume 
   20067    293.94249   -101292.73            0   -100110.13    64161.978    631597.73 
   20068    293.87962   -101292.14            0    -100109.8    64160.144    631586.32 
Loop time of 0.0301349 on 2 procs for 1 steps with 31126 atoms

199.1% CPU use with 1 MPI tasks x 2 OpenMP threads
run 1 pre no post no start 20000 stop 30000
Step Temp E_pair E_mol TotEng Press Volume 
   20068    293.87962   -101292.14            0    -100109.8    64160.144    631586.32 
   20069     294.0255   -101292.43            0    -100109.5    64147.061    631574.92 
Loop time of 0.028821 on 2 procs for 1 steps with 31126 atoms

194.3% CPU use with 1 MPI tasks x 2 OpenMP threads
run 1 pre no post no start 20000 stop 30000
Step Temp E_pair E_mol TotEng Press Volume 
   20069     294.0255   -101292.43            0    -100109.5    64147.061    631574.92 
   20070    294.33773   -101293.39            0    -100109.2    64122.078    631563.51 
Loop time of 0.069638 on 2 procs for 1 steps with 31126 atoms

201.0% CPU use with 1 MPI tasks x 2 OpenMP threads
run 1 pre no post no start 20000 stop 30000
Step Temp E_pair E_mol TotEng Press Volume 
   20070    294.33773   -101293.39            0    -100109.2    64122.078    631563.51 
   20071    294.73057   -101294.67            0    -100108.9    64087.483     631552.1 
Loop time of 0.028733 on 2 procs for 1 steps with 31126 atoms

167.1% CPU use with 1 MPI tasks x 2 OpenMP threads
run 1 pre no post no start 20000 stop 30000
Step Temp E_pair E_mol TotEng Press Volume 
   20071    294.73057   -101294.67            0    -100108.9    64087.483     631552.1 
   20072    295.13521   -101295.99            0   -100108.59     64046.01     631540.7 
Loop time of 0.0312901 on 2 procs for 1 steps with 31126 atoms

191.8% CPU use with 1 MPI tasks x 2 OpenMP threads
run 1 pre no post no start 20000 stop 30000
Step Temp E_pair E_mol TotEng Press Volume 
   20072    295.13521   -101295.99            0   -100108.59     64046.01     631540.7 
   20073    295.50166   -101297.16            0   -100108.29    64001.554    631529.29 
Loop time of 0.0294211 on 2 procs for 1 steps with 31126 atoms

217.5% CPU use with 1 MPI tasks x 2 OpenMP threads
run 1 pre no post no start 20000 stop 30000
Step Temp E_pair E_mol TotEng Press Volume 
   20073    295.50166   -101297.16            0   -100108.29    64001.554    631529.29 
   20074    295.79058   -101298.01            0   -100107.98    63959.162    631517.88 
Loop time of 0.0309591 on 2 procs for 1 steps with 31126 atoms

193.8% CPU use with 1 MPI tasks x 2 OpenMP threads
run 1 pre no post no start 20000 stop 30000
Step Temp E_pair E_mol TotEng Press Volume 
   20074    295.79058   -101298.01            0   -100107.98    63959.162    631517.88 
   20075    295.97177   -101298.43            0   -100107.67    63923.159    631506.48 
Loop time of 0.0289402 on 2 procs for 1 steps with 31126 atoms

207.3% CPU use with 1 MPI tasks x 2 OpenMP threads
run 1 pre no post no start 20000 stop 30000
Step Temp E_pair E_mol TotEng Press Volume 
   20075    295.97177   -101298.43            0   -100107.67    63923.159    631506.48 
   20076    296.03087   -101298.35            0   -100107.35    63898.588    631495.07 
Loop time of 0.0303199 on 2 procs for 1 steps with 31126 atoms

211.1% CPU use with 1 MPI tasks x 2 OpenMP threads
run 1 pre no post no start 20000 stop 30000
Step Temp E_pair E_mol TotEng Press Volume 
   20076    296.03087   -101298.35            0   -100107.35    63898.588    631495.07 
   20077    295.98286   -101297.84            0   -100107.03     63887.01    631483.67 
Loop time of 0.0289369 on 2 procs for 1 steps with 31126 atoms

221.2% CPU use with 1 MPI tasks x 2 OpenMP threads
run 1 pre no post no start 20000 stop 30000
Step Temp E_pair E_mol TotEng Press Volume 
   20077    295.98286   -101297.84            0   -100107.03     63887.01    631483.67 
   20078     295.8647   -101297.04            0   -100106.71    63886.962    631472.26 
Loop time of 0.030427 on 2 procs for 1 steps with 31126 atoms

223.5% CPU use with 1 MPI tasks x 2 OpenMP threads
run 1 pre no post no start 20000 stop 30000
Step Temp E_pair E_mol TotEng Press Volume 
   20078     295.8647   -101297.04            0   -100106.71    63886.962    631472.26 
   20079    295.70137   -101296.08            0    -100106.4     63896.72    631460.85 
Loop time of 0.02861 on 2 procs for 1 steps with 31126 atoms

209.7% CPU use with 1 MPI tasks x 2 OpenMP threads
run 1 pre no post no start 20000 stop 30000
Step Temp E_pair E_mol TotEng Press Volume 
   20079    295.70137   -101296.08            0    -100106.4     63896.72    631460.85 
   20080    295.49469   -101294.93            0   -100106.09    63915.081    631449.45 
Loop time of 0.0712349 on 2 procs for 1 steps with 31126 atoms

202.1% CPU use with 1 MPI tasks x 2 OpenMP threads
run 1 pre no post no start 20000 stop 30000
Step Temp E_pair E_mol TotEng Press Volume 
   20080    295.49469   -101294.93            0   -100106.09    63915.081    631449.45 
   20081     295.2644   -101293.67            0   -100105.76    63940.007    631438.04 
Loop time of 0.0283918 on 2 procs for 1 steps with 31126 atoms

211.3% CPU use with 1 MPI tasks x 2 OpenMP threads
run 1 pre no post no start 20000 stop 30000
Step Temp E_pair E_mol TotEng Press Volume 
   20081     295.2644   -101293.67            0   -100105.76    63940.007    631438.04 
   20082    295.07709   -101292.59            0   -100105.43    63967.473    631426.63 
Loop time of 0.0299089 on 2 procs for 1 steps with 31126 atoms

200.6% CPU use with 1 MPI tasks x 2 OpenMP threads
run 1 pre no post no start 20000 stop 30000
Step Temp E_pair E_mol TotEng Press Volume 
   20082    295.07709   -101292.59            0   -100105.43    63967.473    631426.63 
   20083    294.99408   -101291.95            0   -100105.12    63992.816    631415.23 
Loop time of 0.0292051 on 2 procs for 1 steps with 31126 atoms

205.4% CPU use with 1 MPI tasks x 2 OpenMP threads
run 1 pre no post no start 20000 stop 30000
Step Temp E_pair E_mol TotEng Press Volume 
   20083    294.99408   -101291.95            0   -100105.12    63992.816    631415.23 
   20084    294.99928   -101291.69            0   -100104.84    64016.152    631403.82 
Loop time of 0.029387 on 2 procs for 1 steps with 31126 atoms

217.8% CPU use with 1 MPI tasks x 2 OpenMP threads
run 1 pre no post no start 20000 stop 30000
Step Temp E_pair E_mol TotEng Press Volume 
   20084    294.99928   -101291.69            0   -100104.84    64016.152    631403.82 
   20085    295.00741   -101291.43            0   -100104.55    64038.464    631392.42 
Loop time of 0.0298951 on 2 procs for 1 steps with 31126 atoms

200.7% CPU use with 1 MPI tasks x 2 OpenMP threads
run 1 pre no post no start 20000 stop 30000
Step Temp E_pair E_mol TotEng Press Volume 
   20085    295.00741   -101291.43            0   -100104.55    64038.464    631392.42 
   20086     294.9506   -101290.88            0   -100104.23    64061.629    631381.01 
Loop time of 0.0283389 on 2 procs for 1 steps with 31126 atoms

225.8% CPU use with 1 MPI tasks x 2 OpenMP threads
run 1 pre no post no start 20000 stop 30000
Step Temp E_pair E_mol TotEng Press Volume 
   20086     294.9506   -101290.88            0   -100104.23    64061.629    631381.01 
   20087    294.86046   -101290.17            0   -100103.89    64082.857     631369.6 
Loop time of 0.031404 on 2 procs for 1 steps with 31126 atoms

203.8% CPU use with 1 MPI tasks x 2 OpenMP threads
run 1 pre no post no start 20000 stop 30000
Step Temp E_pair E_mol TotEng Press Volume 
   20087    294.86046   -101290.17            0   -100103.89    64082.857     631369.6 
   20088    294.85041    -101289.8            0   -100103.55    64097.576     631358.2 
Loop time of 0.0295808 on 2 procs for 1 steps with 31126 atoms

189.3% CPU use with 1 MPI tasks x 2 OpenMP threads
run 1 pre no post no start 20000 stop 30000
Step Temp E_pair E_mol TotEng Press Volume 
   20088    294.85041    -101289.8            0   -100103.55    64097.576     631358.2 
   20089    294.98912   -101290.07            0   -100103.26    64102.693    631346.79 
Loop time of 0.0309551 on 2 procs for 1 steps with 31126 atoms

206.8% CPU use with 1 MPI tasks x 2 OpenMP threads
run 1 pre no post no start 20000 stop 30000
Step Temp E_pair E_mol TotEng Press Volume 
   20089    294.98912   -101290.07            0   -100103.26    64102.693    631346.79 
   20090    295.20086   -101290.65            0   -100102.99    64103.212    631335.38 
Loop time of 0.0719831 on 2 procs for 1 steps with 31126 atoms

216.7% CPU use with 1 MPI tasks x 2 OpenMP threads
run 1 pre no post no start 20000 stop 30000
Step Temp E_pair E_mol TotEng Press Volume 
   20090    295.20086   -101290.65            0   -100102.99    64103.212    631335.38 
   20091    295.33552    -101290.9            0    -100102.7    64107.823    631323.98 
Loop time of 0.0289471 on 2 procs for 1 steps with 31126 atoms

193.5% CPU use with 1 MPI tasks x 2 OpenMP threads
run 1 pre no post no start 20000 stop 30000
Step Temp E_pair E_mol TotEng Press Volume 
   20091    295.33552    -101290.9            0    -100102.7    64107.823    631323.98 
   20092    295.31217   -101290.49            0   -100102.38    64123.048    631312.57 
Loop time of 0.0284719 on 2 procs for 1 steps with 31126 atoms

210.7% CPU use with 1 MPI tasks x 2 OpenMP threads
run 1 pre no post no start 20000 stop 30000
Step Temp E_pair E_mol TotEng Press Volume 
   20092    295.31217   -101290.49            0   -100102.38    64123.048    631312.57 
   20093    295.14104   -101289.46            0   -100102.04    64150.383    631301.17 
Loop time of 0.0304079 on 2 procs for 1 steps with 31126 atoms

210.5% CPU use with 1 MPI tasks x 2 OpenMP threads
run 1 pre no post no start 20000 stop 30000
Step Temp E_pair E_mol TotEng Press Volume 
   20093    295.14104   -101289.46            0   -100102.04    64150.383    631301.17 
   20094    294.91043   -101288.17            0   -100101.68     64186.67    631289.76 
Loop time of 0.0292599 on 2 procs for 1 steps with 31126 atoms

218.7% CPU use with 1 MPI tasks x 2 OpenMP threads
run 1 pre no post no start 20000 stop 30000
Step Temp E_pair E_mol TotEng Press Volume 
   20094    294.91043   -101288.17            0   -100101.68     64186.67    631289.76 
   20095    294.77621   -101287.29            0   -100101.34    64224.467    631278.35 
Loop time of 0.0317822 on 2 procs for 1 steps with 31126 atoms

201.4% CPU use with 1 MPI tasks x 2 OpenMP threads
run 1 pre no post no start 20000 stop 30000
Step Temp E_pair E_mol TotEng Press Volume 
   20095    294.77621   -101287.29            0   -100101.34    64224.467    631278.35 
   20096    294.85735    -101287.3            0   -100101.02    64256.762    631266.95 
Loop time of 0.0288191 on 2 procs for 1 steps with 31126 atoms

208.2% CPU use with 1 MPI tasks x 2 OpenMP threads
run 1 pre no post no start 20000 stop 30000
Step Temp E_pair E_mol TotEng Press Volume 
   20096    294.85735    -101287.3            0   -100101.02    64256.762    631266.95 
   20097    295.17476   -101288.27            0   -100100.72    64280.351    631255.54 
Loop time of 0.031204 on 2 procs for 1 steps with 31126 atoms

192.3% CPU use with 1 MPI tasks x 2 OpenMP threads
run 1 pre no post no start 20000 stop 30000
Step Temp E_pair E_mol TotEng Press Volume 
   20097    295.17476   -101288.27            0   -100100.72    64280.351    631255.54 
   20098    295.68254   -101290.02            0   -100100.43    64294.138    631244.13 
Loop time of 0.0287678 on 2 procs for 1 steps with 31126 atoms

208.6% CPU use with 1 MPI tasks x 2 OpenMP threads
run 1 pre no post no start 20000 stop 30000
Step Temp E_pair E_mol TotEng Press Volume 
   20098    295.68254   -101290.02            0   -100100.43    64294.138    631244.13 
   20099    296.28963   -101292.18            0   -100100.14    64298.802    631232.73 
Loop time of 0.0313799 on 2 procs for 1 steps with 31126 atoms

191.2% CPU use with 1 MPI tasks x 2 OpenMP threads
run 1 pre no post no start 20000 stop 30000
Step Temp E_pair E_mol TotEng Press Volume 
   20099    296.28963   -101292.18            0   -100100.14    64298.802    631232.73 
   20100    296.86548   -101294.22            0   -100099.87    64297.356    631221.32 
Loop time of 0.071352 on 2 procs for 1 steps with 31126 atoms

201.8% CPU use with 1 MPI tasks x 2 OpenMP threads
run 1 pre no post no start 20000 stop 30000
Step Temp E_pair E_mol TotEng Press Volume 
   20100    296.86548   -101294.22            0   -100099.87    64297.356    631221.32 
   20101    297.26025   -101295.53            0   -100099.59    64292.761    631209.92 
Loop time of 0.029464 on 2 procs for 1 steps with 31126 atoms

217.2% CPU use with 1 MPI tasks x 2 OpenMP threads
run 1 pre no post no start 20000 stop 30000
Step Temp E_pair E_mol TotEng Press Volume 
   20101    297.26025   -101295.53            0   -100099.59    64292.761    631209.92 
   20102    297.34472   -101295.57            0   -100099.28    64287.553    631198.51 
Loop time of 0.028847 on 2 procs for 1 steps with 31126 atoms

208.0% CPU use with 1 MPI tasks x 2 OpenMP threads
run 1 pre no post no start 20000 stop 30000
Step Temp E_pair E_mol TotEng Press Volume 
   20102    297.34472   -101295.57            0   -100099.28    64287.553    631198.51 
   20103     297.0808   -101294.16            0   -100098.94    64280.137     631187.1 
Loop time of 0.03003 on 2 procs for 1 steps with 31126 atoms

199.8% CPU use with 1 MPI tasks x 2 OpenMP threads
run 1 pre no post no start 20000 stop 30000
Step Temp E_pair E_mol TotEng Press Volume 
   20103     297.0808   -101294.16            0   -100098.94    64280.137     631187.1 
   20104    296.55117   -101291.68            0   -100098.59    64266.317     631175.7 
Loop time of 0.0291612 on 2 procs for 1 steps with 31126 atoms

205.8% CPU use with 1 MPI tasks x 2 OpenMP threads
run 1 pre no post no start 20000 stop 30000
Step Temp E_pair E_mol TotEng Press Volume 
   20104    296.55117   -101291.68            0   -100098.59    64266.317     631175.7 
   20105    295.88757   -101288.67            0   -100098.25    64241.844    631164.29 
Loop time of 0.0306201 on 2 procs for 1 steps with 31126 atoms

195.9% CPU use with 1 MPI tasks x 2 OpenMP threads
run 1 pre no post no start 20000 stop 30000
Step Temp E_pair E_mol TotEng Press Volume 
   20105    295.88757   -101288.67            0   -100098.25    64241.844    631164.29 
   20106    295.20723   -101285.59            0   -100097.91    64205.476    631152.88 
Loop time of 0.02912 on 2 procs for 1 steps with 31126 atoms

206.0% CPU use with 1 MPI tasks x 2 OpenMP threads
run 1 pre no post no start 20000 stop 30000
Step Temp E_pair E_mol TotEng Press Volume 
   20106    295.20723   -101285.59            0   -100097.91    64205.476    631152.88 
   20107    294.62567   -101282.91            0   -100097.56    64155.661    631141.48 
Loop time of 0.0304399 on 2 procs for 1 steps with 31126 atoms

210.3% CPU use with 1 MPI tasks x 2 OpenMP threads
run 1 pre no post no start 20000 stop 30000
Step Temp E_pair E_mol TotEng Press Volume 
   20107    294.62567   -101282.91            0   -100097.56    64155.661    631141.48 
   20108    294.23887   -101281.04            0   -100097.25    64092.835    631130.07 
Loop time of 0.02929 on 2 procs for 1 steps with 31126 atoms

218.5% CPU use with 1 MPI tasks x 2 OpenMP threads
run 1 pre no post no start 20000 stop 30000
Step Temp E_pair E_mol TotEng Press Volume 
   20108    294.23887   -101281.04            0   -100097.25    64092.835    631130.07 
   20109    294.05147   -101279.99            0   -100096.95    64021.669    631118.67 
Loop time of 0.0307879 on 2 procs for 1 steps with 31126 atoms

220.9% CPU use with 1 MPI tasks x 2 OpenMP threads
run 1 pre no post no start 20000 stop 30000
Step Temp E_pair E_mol TotEng Press Volume 
   20109    294.05147   -101279.99            0   -100096.95    64021.669    631118.67 
   20110    293.98668   -101279.43            0   -100096.66    63949.901    631107.26 
Loop time of 0.0728359 on 2 procs for 1 steps with 31126 atoms

203.2% CPU use with 1 MPI tasks x 2 OpenMP threads
run 1 pre no post no start 20000 stop 30000
Step Temp E_pair E_mol TotEng Press Volume 
   20110    293.98668   -101279.43            0   -100096.66    63949.901    631107.26 
   20111    293.96842   -101279.05            0   -100096.35    63884.577    631095.85 
Loop time of 0.031255 on 2 procs for 1 steps with 31126 atoms

217.6% CPU use with 1 MPI tasks x 2 OpenMP threads
run 1 pre no post no start 20000 stop 30000
Step Temp E_pair E_mol TotEng Press Volume 
   20111    293.96842   -101279.05            0   -100096.35    63884.577    631095.85 
   20112    293.94328   -101278.65            0   -100096.05    63829.932    631084.45 
Loop time of 0.0289941 on 2 procs for 1 steps with 31126 atoms

206.9% CPU use with 1 MPI tasks x 2 OpenMP threads
run 1 pre no post no start 20000 stop 30000
Step Temp E_pair E_mol TotEng Press Volume 
   20112    293.94328   -101278.65            0   -100096.05    63829.932    631084.45 
   20113    293.87449   -101278.06            0   -100095.74    63789.813    631073.04 
Loop time of 0.0286758 on 2 procs for 1 steps with 31126 atoms

209.2% CPU use with 1 MPI tasks x 2 OpenMP threads
run 1 pre no post no start 20000 stop 30000
Step Temp E_pair E_mol TotEng Press Volume 
   20113    293.87449   -101278.06            0   -100095.74    63789.813    631073.04 
   20114    293.77732   -101277.34            0   -100095.41    63762.513    631061.63 
Loop time of 0.0304739 on 2 procs for 1 steps with 31126 atoms

196.9% CPU use with 1 MPI tasks x 2 OpenMP threads
run 1 pre no post no start 20000 stop 30000
Step Temp E_pair E_mol TotEng Press Volume 
   20114    293.77732   -101277.34            0   -100095.41    63762.513    631061.63 
   20115    293.73446   -101276.83            0   -100095.07    63744.402    631050.23 
Loop time of 0.0287101 on 2 procs for 1 steps with 31126 atoms

195.1% CPU use with 1 MPI tasks x 2 OpenMP threads
run 1 pre no post no start 20000 stop 30000
Step Temp E_pair E_mol TotEng Press Volume 
   20115    293.73446   -101276.83            0   -100095.07    63744.402    631050.23 
   20116    293.84213   -101276.95            0   -100094.76    63729.288    631038.82 
Loop time of 0.0302229 on 2 procs for 1 steps with 31126 atoms

198.5% CPU use with 1 MPI tasks x 2 OpenMP threads
run 1 pre no post no start 20000 stop 30000
Step Temp E_pair E_mol TotEng Press Volume 
   20116    293.84213   -101276.95            0   -100094.76    63729.288    631038.82 
   20117    294.12158   -101277.79            0   -100094.48    63714.687    631027.42 
Loop time of 0.0287261 on 2 procs for 1 steps with 31126 atoms

194.9% CPU use with 1 MPI tasks x 2 OpenMP threads
run 1 pre no post no start 20000 stop 30000
Step Temp E_pair E_mol TotEng Press Volume 
   20117    294.12158   -101277.79            0   -100094.48    63714.687    631027.42 
   20118    294.47515   -101278.95            0   -100094.21    63703.327    631016.01 
Loop time of 0.030293 on 2 procs for 1 steps with 31126 atoms

198.1% CPU use with 1 MPI tasks x 2 OpenMP threads
run 1 pre no post no start 20000 stop 30000
Step Temp E_pair E_mol TotEng Press Volume 
   20118    294.47515   -101278.95            0   -100094.21    63703.327    631016.01 
   20119    294.75273   -101279.78            0   -100093.93    63701.771     631004.6 
Loop time of 0.0291739 on 2 procs for 1 steps with 31126 atoms

205.7% CPU use with 1 MPI tasks x 2 OpenMP threads
run 1 pre no post no start 20000 stop 30000
Step Temp E_pair E_mol TotEng Press Volume 
   20119    294.75273   -101279.78            0   -100093.93    63701.771     631004.6 
   20120    294.87317   -101279.95            0   -100093.61    63713.738     630993.2 
Loop time of 0.0711 on 2 procs for 1 steps with 31126 atoms

208.2% CPU use with 1 MPI tasks x 2 OpenMP threads
run 1 pre no post no start 20000 stop 30000
Step Temp E_pair E_mol TotEng Press Volume 
   20120    294.87317   -101279.95            0   -100093.61    63713.738     630993.2 
   20121    294.87867   -101279.63            0   -100093.27    63738.194    630981.79 
Loop time of 0.0310431 on 2 procs for 1 steps with 31126 atoms

193.3% CPU use with 1 MPI tasks x 2 OpenMP threads
run 1 pre no post no start 20000 stop 30000
Step Temp E_pair E_mol TotEng Press Volume 
   20121    294.87867   -101279.63            0   -100093.27    63738.194    630981.79 
   20122    294.88898   -101279.34            0   -100092.93    63771.645    630970.38 
Loop time of 0.0299051 on 2 procs for 1 steps with 31126 atoms

214.0% CPU use with 1 MPI tasks x 2 OpenMP threads
run 1 pre no post no start 20000 stop 30000
Step Temp E_pair E_mol TotEng Press Volume 
   20122    294.88898   -101279.34            0   -100092.93    63771.645    630970.38 
   20123    294.99286   -101279.46            0   -100092.64    63811.927    630958.98 
Loop time of 0.029737 on 2 procs for 1 steps with 31126 atoms

201.8% CPU use with 1 MPI tasks x 2 OpenMP threads
run 1 pre no post no start 20000 stop 30000
Step Temp E_pair E_mol TotEng Press Volume 
   20123    294.99286   -101279.46            0   -100092.64    63811.927    630958.98 
   20124     295.1508   -101279.83            0   -100092.38    63859.877    630947.57 
Loop time of 0.030684 on 2 procs for 1 steps with 31126 atoms

208.6% CPU use with 1 MPI tasks x 2 OpenMP threads
run 1 pre no post no start 20000 stop 30000
Step Temp E_pair E_mol TotEng Press Volume 
   20124     295.1508   -101279.83            0   -100092.38    63859.877    630947.57 
   20125    295.22323   -101279.85            0    -100092.1     63920.07    630936.17 
Loop time of 0.0294719 on 2 procs for 1 steps with 31126 atoms

203.6% CPU use with 1 MPI tasks x 2 OpenMP threads
run 1 pre no post no start 20000 stop 30000
Step Temp E_pair E_mol TotEng Press Volume 
   20125    295.22323   -101279.85            0    -100092.1     63920.07    630936.17 
   20126    295.12365   -101279.12            0   -100091.77    63992.722    630924.76 
Loop time of 0.0309761 on 2 procs for 1 steps with 31126 atoms

193.7% CPU use with 1 MPI tasks x 2 OpenMP threads
run 1 pre no post no start 20000 stop 30000
Step Temp E_pair E_mol TotEng Press Volume 
   20126    295.12365   -101279.12            0   -100091.77    63992.722    630924.76 
   20127    294.92418   -101277.96            0   -100091.41    64071.137    630913.35 
Loop time of 0.0294511 on 2 procs for 1 steps with 31126 atoms

203.7% CPU use with 1 MPI tasks x 2 OpenMP threads
run 1 pre no post no start 20000 stop 30000
Step Temp E_pair E_mol TotEng Press Volume 
   20127    294.92418   -101277.96            0   -100091.41    64071.137    630913.35 
   20128    294.78832   -101277.08            0   -100091.08    64144.344    630901.95 
Loop time of 0.0308619 on 2 procs for 1 steps with 31126 atoms

207.4% CPU use with 1 MPI tasks x 2 OpenMP threads
run 1 pre no post no start 20000 stop 30000
Step Temp E_pair E_mol TotEng Press Volume 
   20128    294.78832   -101277.08            0   -100091.08    64144.344    630901.95 
   20129    294.82775   -101276.93            0   -100090.77    64203.959    630890.54 
Loop time of 0.0296721 on 2 procs for 1 steps with 31126 atoms

202.2% CPU use with 1 MPI tasks x 2 OpenMP threads
run 1 pre no post no start 20000 stop 30000
Step Temp E_pair E_mol TotEng Press Volume 
   20129    294.82775   -101276.93            0   -100090.77    64203.959    630890.54 
   20130    295.04779   -101277.52            0   -100090.48    64246.948    630879.13 
Loop time of 0.0711489 on 2 procs for 1 steps with 31126 atoms

208.0% CPU use with 1 MPI tasks x 2 OpenMP threads
run 1 pre no post no start 20000 stop 30000
Step Temp E_pair E_mol TotEng Press Volume 
   20130    295.04779   -101277.52            0   -100090.48    64246.948    630879.13 
   20131    295.38818    -101278.6            0   -100090.18    64274.909    630867.73 
Loop time of 0.0302479 on 2 procs for 1 steps with 31126 atoms

198.4% CPU use with 1 MPI tasks x 2 OpenMP threads
run 1 pre no post no start 20000 stop 30000
Step Temp E_pair E_mol TotEng Press Volume 
   20131    295.38818    -101278.6            0   -100090.18    64274.909    630867.73 
   20132    295.76663   -101279.83            0    -100089.9    64292.267    630856.32 
Loop time of 0.029747 on 2 procs for 1 steps with 31126 atoms

201.7% CPU use with 1 MPI tasks x 2 OpenMP threads
run 1 pre no post no start 20000 stop 30000
Step Temp E_pair E_mol TotEng Press Volume 
   20132    295.76663   -101279.83            0    -100089.9    64292.267    630856.32 
   20133    296.09059   -101280.85            0   -100089.61     64303.92    630844.92 
Loop time of 0.031285 on 2 procs for 1 steps with 31126 atoms

191.8% CPU use with 1 MPI tasks x 2 OpenMP threads
run 1 pre no post no start 20000 stop 30000
Step Temp E_pair E_mol TotEng Press Volume 
   20133    296.09059   -101280.85            0   -100089.61     64303.92    630844.92 
   20134      296.251   -101281.21            0   -100089.33    64316.652    630833.51 
Loop time of 0.0294909 on 2 procs for 1 steps with 31126 atoms

203.5% CPU use with 1 MPI tasks x 2 OpenMP threads
run 1 pre no post no start 20000 stop 30000
Step Temp E_pair E_mol TotEng Press Volume 
   20134      296.251   -101281.21            0   -100089.33    64316.652    630833.51 
   20135    296.11669   -101280.39            0   -100089.05    64337.984     630822.1 
Loop time of 0.0313971 on 2 procs for 1 steps with 31126 atoms

216.6% CPU use with 1 MPI tasks x 2 OpenMP threads
run 1 pre no post no start 20000 stop 30000
Step Temp E_pair E_mol TotEng Press Volume 
   20135    296.11669   -101280.39            0   -100089.05    64337.984     630822.1 
   20136    295.58676   -101277.94            0   -100088.73    64373.171     630810.7 
Loop time of 0.0294681 on 2 procs for 1 steps with 31126 atoms

203.6% CPU use with 1 MPI tasks x 2 OpenMP threads
run 1 pre no post no start 20000 stop 30000
Step Temp E_pair E_mol TotEng Press Volume 
   20136    295.58676   -101277.94            0   -100088.73    64373.171     630810.7 
   20137    294.71519   -101274.05            0   -100088.34    64419.281    630799.29 
Loop time of 0.031518 on 2 procs for 1 steps with 31126 atoms

203.1% CPU use with 1 MPI tasks x 2 OpenMP threads
run 1 pre no post no start 20000 stop 30000
Step Temp E_pair E_mol TotEng Press Volume 
   20137    294.71519   -101274.05            0   -100088.34    64419.281    630799.29 
   20138    293.78861   -101269.89            0   -100087.92    64462.546    630787.88 
Loop time of 0.029325 on 2 procs for 1 steps with 31126 atoms

204.6% CPU use with 1 MPI tasks x 2 OpenMP threads
run 1 pre no post no start 20000 stop 30000
Step Temp E_pair E_mol TotEng Press Volume 
   20138    293.78861   -101269.89            0   -100087.92    64462.546    630787.88 
   20139    293.20668   -101267.17            0   -100087.53    64484.858    630776.48 
Loop time of 0.0315831 on 2 procs for 1 steps with 31126 atoms

190.0% CPU use with 1 MPI tasks x 2 OpenMP threads
run 1 pre no post no start 20000 stop 30000
Step Temp E_pair E_mol TotEng Press Volume 
   20139    293.20668   -101267.17            0   -100087.53    64484.858    630776.48 
   20140    293.22096   -101266.92            0   -100087.23    64474.331    630765.07 
Loop time of 0.072881 on 2 procs for 1 steps with 31126 atoms

197.6% CPU use with 1 MPI tasks x 2 OpenMP threads
run 1 pre no post no start 20000 stop 30000
Step Temp E_pair E_mol TotEng Press Volume 
   20140    293.22096   -101266.92            0   -100087.23    64474.331    630765.07 
   20141    293.79924      -101269            0   -100086.98    64431.516    630753.67 
Loop time of 0.031132 on 2 procs for 1 steps with 31126 atoms

231.3% CPU use with 1 MPI tasks x 2 OpenMP threads
run 1 pre no post no start 20000 stop 30000
Step Temp E_pair E_mol TotEng Press Volume 
   20141    293.79924      -101269            0   -100086.98    64431.516    630753.67 
   20142    294.69806   -101272.38            0   -100086.75    64367.717    630742.26 
Loop time of 0.0301421 on 2 procs for 1 steps with 31126 atoms

212.3% CPU use with 1 MPI tasks x 2 OpenMP threads
run 1 pre no post no start 20000 stop 30000
Step Temp E_pair E_mol TotEng Press Volume 
   20142    294.69806   -101272.38            0   -100086.75    64367.717    630742.26 
   20143    295.58205   -101275.71            0   -100086.51    64298.705    630730.85 
Loop time of 0.03058 on 2 procs for 1 steps with 31126 atoms

209.3% CPU use with 1 MPI tasks x 2 OpenMP threads
run 1 pre no post no start 20000 stop 30000
Step Temp E_pair E_mol TotEng Press Volume 
   20143    295.58205   -101275.71            0   -100086.51    64298.705    630730.85 
   20144    296.14308   -101277.69            0   -100086.24    64239.769    630719.45 
Loop time of 0.029474 on 2 procs for 1 steps with 31126 atoms

217.1% CPU use with 1 MPI tasks x 2 OpenMP threads
run 1 pre no post no start 20000 stop 30000
Step Temp E_pair E_mol TotEng Press Volume 
   20144    296.14308   -101277.69            0   -100086.24    64239.769    630719.45 
   20145    296.23126   -101277.71            0   -100085.91     64198.87    630708.04 
Loop time of 0.0310721 on 2 procs for 1 steps with 31126 atoms

193.1% CPU use with 1 MPI tasks x 2 OpenMP threads
run 1 pre no post no start 20000 stop 30000
Step Temp E_pair E_mol TotEng Press Volume 
   20145    296.23126   -101277.71            0   -100085.91     64198.87    630708.04 
   20146     295.8892   -101275.98            0   -100085.56    64175.679    630696.63 
Loop time of 0.029901 on 2 procs for 1 steps with 31126 atoms

214.0% CPU use with 1 MPI tasks x 2 OpenMP threads
run 1 pre no post no start 20000 stop 30000
Step Temp E_pair E_mol TotEng Press Volume 
   20146     295.8892   -101275.98            0   -100085.56    64175.679    630696.63 
   20147    295.27041   -101273.14            0    -100085.2    64164.381    630685.23 
Loop time of 0.030941 on 2 procs for 1 steps with 31126 atoms

193.9% CPU use with 1 MPI tasks x 2 OpenMP threads
run 1 pre no post no start 20000 stop 30000
Step Temp E_pair E_mol TotEng Press Volume 
   20147    295.27041   -101273.14            0    -100085.2    64164.381    630685.23 
   20148    294.56078   -101269.94            0   -100084.85     64156.77    630673.82 
Loop time of 0.0295861 on 2 procs for 1 steps with 31126 atoms

216.3% CPU use with 1 MPI tasks x 2 OpenMP threads
run 1 pre no post no start 20000 stop 30000
Step Temp E_pair E_mol TotEng Press Volume 
   20148    294.56078   -101269.94            0   -100084.85     64156.77    630673.82 
   20149    293.95083   -101267.13            0    -100084.5    64145.442    630662.42 
Loop time of 0.030966 on 2 procs for 1 steps with 31126 atoms

193.8% CPU use with 1 MPI tasks x 2 OpenMP threads
run 1 pre no post no start 20000 stop 30000
Step Temp E_pair E_mol TotEng Press Volume 
   20149    293.95083   -101267.13            0    -100084.5    64145.442    630662.42 
   20150    293.61413   -101265.44            0   -100084.17    64123.254    630651.01 
Loop time of 0.0728869 on 2 procs for 1 steps with 31126 atoms

203.1% CPU use with 1 MPI tasks x 2 OpenMP threads
run 1 pre no post no start 20000 stop 30000
Step Temp E_pair E_mol TotEng Press Volume 
   20150    293.61413   -101265.44            0   -100084.17    64123.254    630651.01 
   20151    293.64366   -101265.27            0   -100083.87    64089.033     630639.6 
Loop time of 0.031198 on 2 procs for 1 steps with 31126 atoms

205.1% CPU use with 1 MPI tasks x 2 OpenMP threads
run 1 pre no post no start 20000 stop 30000
Step Temp E_pair E_mol TotEng Press Volume 
   20151    293.64366   -101265.27            0   -100083.87    64089.033     630639.6 
   20152    293.97647   -101266.35            0   -100083.62    64049.453     630628.2 
Loop time of 0.0298171 on 2 procs for 1 steps with 31126 atoms

214.6% CPU use with 1 MPI tasks x 2 OpenMP threads
run 1 pre no post no start 20000 stop 30000
Step Temp E_pair E_mol TotEng Press Volume 
   20152    293.97647   -101266.35            0   -100083.62    64049.453     630628.2 
   20153    294.42171   -101267.88            0   -100083.36    64016.628    630616.79 
Loop time of 0.0316391 on 2 procs for 1 steps with 31126 atoms

189.6% CPU use with 1 MPI tasks x 2 OpenMP threads
run 1 pre no post no start 20000 stop 30000
Step Temp E_pair E_mol TotEng Press Volume 
   20153    294.42171   -101267.88            0   -100083.36    64016.628    630616.79 
   20154    294.78291   -101269.06            0   -100083.08    64001.904    630605.38 
Loop time of 0.02987 on 2 procs for 1 steps with 31126 atoms

200.9% CPU use with 1 MPI tasks x 2 OpenMP threads
run 1 pre no post no start 20000 stop 30000
Step Temp E_pair E_mol TotEng Press Volume 
   20154    294.78291   -101269.06            0   -100083.08    64001.904    630605.38 
   20155    294.92279   -101269.34            0    -100082.8    64012.634    630593.98 
Loop time of 0.031857 on 2 procs for 1 steps with 31126 atoms

213.5% CPU use with 1 MPI tasks x 2 OpenMP threads
run 1 pre no post no start 20000 stop 30000
Step Temp E_pair E_mol TotEng Press Volume 
   20155    294.92279   -101269.34            0    -100082.8    64012.634    630593.98 
   20156    294.76002   -101268.38            0    -100082.5    64051.244    630582.57 
Loop time of 0.030617 on 2 procs for 1 steps with 31126 atoms

209.0% CPU use with 1 MPI tasks x 2 OpenMP threads
run 1 pre no post no start 20000 stop 30000
Step Temp E_pair E_mol TotEng Press Volume 
   20156    294.76002   -101268.38            0    -100082.5    64051.244    630582.57 
   20157    294.30799   -101266.22            0   -100082.15    64115.022    630571.17 
Loop time of 0.0326641 on 2 procs for 1 steps with 31126 atoms

195.9% CPU use with 1 MPI tasks x 2 OpenMP threads
run 1 pre no post no start 20000 stop 30000
Step Temp E_pair E_mol TotEng Press Volume 
   20157    294.30799   -101266.22            0   -100082.15    64115.022    630571.17 
   20158    293.74784   -101263.57            0   -100081.76    64193.311    630559.76 
Loop time of 0.030256 on 2 procs for 1 steps with 31126 atoms

198.3% CPU use with 1 MPI tasks x 2 OpenMP threads
run 1 pre no post no start 20000 stop 30000
Step Temp E_pair E_mol TotEng Press Volume 
   20158    293.74784   -101263.57            0   -100081.76    64193.311    630559.76 
   20159    293.40564    -101261.8            0   -100081.37     64268.05    630548.35 
Loop time of 0.032124 on 2 procs for 1 steps with 31126 atoms

199.2% CPU use with 1 MPI tasks x 2 OpenMP threads
run 1 pre no post no start 20000 stop 30000
Step Temp E_pair E_mol TotEng Press Volume 
   20159    293.40564    -101261.8            0   -100081.37     64268.05    630548.35 
   20160    293.56164   -101262.11            0   -100081.05    64323.496    630536.95 
Loop time of 0.0723519 on 2 procs for 1 steps with 31126 atoms

210.1% CPU use with 1 MPI tasks x 2 OpenMP threads
run 1 pre no post no start 20000 stop 30000
Step Temp E_pair E_mol TotEng Press Volume 
   20160    293.56164   -101262.11            0   -100081.05    64323.496    630536.95 
   20161      294.234   -101264.58            0   -100080.81    64356.108    630525.54 
Loop time of 0.031827 on 2 procs for 1 steps with 31126 atoms

213.7% CPU use with 1 MPI tasks x 2 OpenMP threads
run 1 pre no post no start 20000 stop 30000
Step Temp E_pair E_mol TotEng Press Volume 
   20161      294.234   -101264.58            0   -100080.81    64356.108    630525.54 
   20162    295.16163    -101268.1            0    -100080.6    64374.971    630514.13 
Loop time of 0.029314 on 2 procs for 1 steps with 31126 atoms

218.3% CPU use with 1 MPI tasks x 2 OpenMP threads
run 1 pre no post no start 20000 stop 30000
Step Temp E_pair E_mol TotEng Press Volume 
   20162    295.16163    -101268.1            0    -100080.6    64374.971    630514.13 
   20163    295.98888   -101271.18            0   -100080.35     64395.05    630502.73 
Loop time of 0.0306261 on 2 procs for 1 steps with 31126 atoms

209.0% CPU use with 1 MPI tasks x 2 OpenMP threads
run 1 pre no post no start 20000 stop 30000
Step Temp E_pair E_mol TotEng Press Volume 
   20163    295.98888   -101271.18            0   -100080.35     64395.05    630502.73 
   20164    296.45351   -101272.76            0   -100080.07    64427.887    630491.32 
Loop time of 0.0294821 on 2 procs for 1 steps with 31126 atoms

203.5% CPU use with 1 MPI tasks x 2 OpenMP threads
run 1 pre no post no start 20000 stop 30000
Step Temp E_pair E_mol TotEng Press Volume 
   20164    296.45351   -101272.76            0   -100080.07    64427.887    630491.32 
   20165      296.456   -101272.45            0   -100079.74     64478.51    630479.92 
Loop time of 0.0312579 on 2 procs for 1 steps with 31126 atoms

179.2% CPU use with 1 MPI tasks x 2 OpenMP threads
run 1 pre no post no start 20000 stop 30000
Step Temp E_pair E_mol TotEng Press Volume 
   20165      296.456   -101272.45            0   -100079.74     64478.51    630479.92 
   20166    296.04867   -101270.46            0   -100079.39    64544.969    630468.51 
Loop time of 0.0305212 on 2 procs for 1 steps with 31126 atoms

196.6% CPU use with 1 MPI tasks x 2 OpenMP threads
run 1 pre no post no start 20000 stop 30000
Step Temp E_pair E_mol TotEng Press Volume 
   20166    296.04867   -101270.46            0   -100079.39    64544.969    630468.51 
   20167    295.40042   -101267.49            0   -100079.03    64619.327     630457.1 
Loop time of 0.0312369 on 2 procs for 1 steps with 31126 atoms

192.1% CPU use with 1 MPI tasks x 2 OpenMP threads
run 1 pre no post no start 20000 stop 30000
Step Temp E_pair E_mol TotEng Press Volume 
   20167    295.40042   -101267.49            0   -100079.03    64619.327     630457.1 
   20168    294.73726   -101264.46            0   -100078.66    64688.553     630445.7 
Loop time of 0.030391 on 2 procs for 1 steps with 31126 atoms

197.4% CPU use with 1 MPI tasks x 2 OpenMP threads
run 1 pre no post no start 20000 stop 30000
Step Temp E_pair E_mol TotEng Press Volume 
   20168    294.73726   -101264.46            0   -100078.66    64688.553     630445.7 
   20169    294.27212   -101262.24            0   -100078.32    64740.228    630434.29 
Loop time of 0.0318658 on 2 procs for 1 steps with 31126 atoms

188.3% CPU use with 1 MPI tasks x 2 OpenMP threads
run 1 pre no post no start 20000 stop 30000
Step Temp E_pair E_mol TotEng Press Volume 
   20169    294.27212   -101262.24            0   -100078.32    64740.228    630434.29 
   20170    294.13974   -101261.39            0      -100078    64764.827    630422.88 
Loop time of 0.0744438 on 2 procs for 1 steps with 31126 atoms

204.2% CPU use with 1 MPI tasks x 2 OpenMP threads
run 1 pre no post no start 20000 stop 30000
Step Temp E_pair E_mol TotEng Press Volume 
   20170    294.13974   -101261.39            0      -100078    64764.827    630422.88 
   20171     294.3476   -101261.95            0   -100077.72    64759.354    630411.48 
Loop time of 0.0334282 on 2 procs for 1 steps with 31126 atoms

227.4% CPU use with 1 MPI tasks x 2 OpenMP threads
run 1 pre no post no start 20000 stop 30000
Step Temp E_pair E_mol TotEng Press Volume 
   20171     294.3476   -101261.95            0   -100077.72    64759.354    630411.48 
   20172    294.77956   -101263.42            0   -100077.46    64728.096    630400.07 
Loop time of 0.0296972 on 2 procs for 1 steps with 31126 atoms

202.0% CPU use with 1 MPI tasks x 2 OpenMP threads
run 1 pre no post no start 20000 stop 30000
Step Temp E_pair E_mol TotEng Press Volume 
   20172    294.77956   -101263.42            0   -100077.46    64728.096    630400.07 
   20173     295.2657    -101265.1            0   -100077.18    64680.404    630388.67 
Loop time of 0.0313828 on 2 procs for 1 steps with 31126 atoms

203.9% CPU use with 1 MPI tasks x 2 OpenMP threads
run 1 pre no post no start 20000 stop 30000
Step Temp E_pair E_mol TotEng Press Volume 
   20173     295.2657    -101265.1            0   -100077.18    64680.404    630388.67 
   20174    295.66919   -101266.43            0   -100076.89    64624.621    630377.26 
Loop time of 0.0301101 on 2 procs for 1 steps with 31126 atoms

199.3% CPU use with 1 MPI tasks x 2 OpenMP threads
run 1 pre no post no start 20000 stop 30000
Step Temp E_pair E_mol TotEng Press Volume 
   20174    295.66919   -101266.43            0   -100076.89    64624.621    630377.26 
   20175    295.91635   -101267.13            0   -100076.59     64568.41    630365.85 
Loop time of 0.0325449 on 2 procs for 1 steps with 31126 atoms

196.7% CPU use with 1 MPI tasks x 2 OpenMP threads
run 1 pre no post no start 20000 stop 30000
Step Temp E_pair E_mol TotEng Press Volume 
   20175    295.91635   -101267.13            0   -100076.59     64568.41    630365.85 
   20176    295.97662   -101267.05            0   -100076.27    64517.462    630354.45 
Loop time of 0.031044 on 2 procs for 1 steps with 31126 atoms

219.0% CPU use with 1 MPI tasks x 2 OpenMP threads
run 1 pre no post no start 20000 stop 30000
Step Temp E_pair E_mol TotEng Press Volume 
   20176    295.97662   -101267.05            0   -100076.27    64517.462    630354.45 
   20177    295.87189    -101266.3            0   -100075.94    64474.268    630343.04 
Loop time of 0.032295 on 2 procs for 1 steps with 31126 atoms

198.2% CPU use with 1 MPI tasks x 2 OpenMP threads
run 1 pre no post no start 20000 stop 30000
Step Temp E_pair E_mol TotEng Press Volume 
   20177    295.87189    -101266.3            0   -100075.94    64474.268    630343.04 
   20178    295.67957    -101265.2            0   -100075.61    64437.651    630331.63 
Loop time of 0.0323429 on 2 procs for 1 steps with 31126 atoms

197.9% CPU use with 1 MPI tasks x 2 OpenMP threads
run 1 pre no post no start 20000 stop 30000
Step Temp E_pair E_mol TotEng Press Volume 
   20178    295.67957    -101265.2            0   -100075.61    64437.651    630331.63 
   20179     295.4622   -101264.02            0   -100075.31    64405.199    630320.23 
Loop time of 0.0301559 on 2 procs for 1 steps with 31126 atoms

199.0% CPU use with 1 MPI tasks x 2 OpenMP threads
run 1 pre no post no start 20000 stop 30000
Step Temp E_pair E_mol TotEng Press Volume 
   20179     295.4622   -101264.02            0   -100075.31    64405.199    630320.23 
   20180    295.21817   -101262.73            0   -100075.01    64376.002    630308.82 
Loop time of 0.0706952 on 2 procs for 1 steps with 31126 atoms

203.7% CPU use with 1 MPI tasks x 2 OpenMP threads
run 1 pre no post no start 20000 stop 30000
Step Temp E_pair E_mol TotEng Press Volume 
   20180    295.21817   -101262.73            0   -100075.01    64376.002    630308.82 
   20181    294.95013   -101261.32            0   -100074.67    64348.014    630297.42 
Loop time of 0.031239 on 2 procs for 1 steps with 31126 atoms

217.7% CPU use with 1 MPI tasks x 2 OpenMP threads
run 1 pre no post no start 20000 stop 30000
Step Temp E_pair E_mol TotEng Press Volume 
   20181    294.95013   -101261.32            0   -100074.67    64348.014    630297.42 
   20182    294.75465   -101260.18            0   -100074.32    64315.996    630286.01 
Loop time of 0.0304241 on 2 procs for 1 steps with 31126 atoms

210.4% CPU use with 1 MPI tasks x 2 OpenMP threads
run 1 pre no post no start 20000 stop 30000
Step Temp E_pair E_mol TotEng Press Volume 
   20182    294.75465   -101260.18            0   -100074.32    64315.996    630286.01 
   20183    294.77715   -101259.95            0      -100074    64273.657     630274.6 
Loop time of 0.031755 on 2 procs for 1 steps with 31126 atoms

201.5% CPU use with 1 MPI tasks x 2 OpenMP threads
run 1 pre no post no start 20000 stop 30000
Step Temp E_pair E_mol TotEng Press Volume 
   20183    294.77715   -101259.95            0      -100074    64273.657     630274.6 
   20184    295.06449   -101260.83            0   -100073.72    64218.199     630263.2 
Loop time of 0.0304399 on 2 procs for 1 steps with 31126 atoms

197.1% CPU use with 1 MPI tasks x 2 OpenMP threads
run 1 pre no post no start 20000 stop 30000
Step Temp E_pair E_mol TotEng Press Volume 
   20184    295.06449   -101260.83            0   -100073.72    64218.199     630263.2 
   20185    295.50732   -101262.35            0   -100073.46    64156.061    630251.79 
Loop time of 0.031534 on 2 procs for 1 steps with 31126 atoms

215.6% CPU use with 1 MPI tasks x 2 OpenMP threads
run 1 pre no post no start 20000 stop 30000
Step Temp E_pair E_mol TotEng Press Volume 
   20185    295.50732   -101262.35            0   -100073.46    64156.061    630251.79 
   20186    295.92525   -101263.76            0   -100073.19    64097.959    630240.38 
Loop time of 0.0301712 on 2 procs for 1 steps with 31126 atoms

212.1% CPU use with 1 MPI tasks x 2 OpenMP threads
run 1 pre no post no start 20000 stop 30000
Step Temp E_pair E_mol TotEng Press Volume 
   20186    295.92525   -101263.76            0   -100073.19    64097.959    630240.38 
   20187     296.1588   -101264.43            0   -100072.91    64053.046    630228.98 
Loop time of 0.0316279 on 2 procs for 1 steps with 31126 atoms

202.4% CPU use with 1 MPI tasks x 2 OpenMP threads
run 1 pre no post no start 20000 stop 30000
Step Temp E_pair E_mol TotEng Press Volume 
   20187     296.1588   -101264.43            0   -100072.91    64053.046    630228.98 
   20188    296.08983   -101263.86            0   -100072.62    64028.966    630217.57 
Loop time of 0.0302429 on 2 procs for 1 steps with 31126 atoms

198.4% CPU use with 1 MPI tasks x 2 OpenMP threads
run 1 pre no post no start 20000 stop 30000
Step Temp E_pair E_mol TotEng Press Volume 
   20188    296.08983   -101263.86            0   -100072.62    64028.966    630217.57 
   20189    295.66927   -101261.84            0    -100072.3    64029.166    630206.17 
Loop time of 0.0314848 on 2 procs for 1 steps with 31126 atoms

203.3% CPU use with 1 MPI tasks x 2 OpenMP threads
run 1 pre no post no start 20000 stop 30000
Step Temp E_pair E_mol TotEng Press Volume 
   20189    295.66927   -101261.84            0    -100072.3    64029.166    630206.17 
   20190    294.99227   -101258.75            0   -100071.93    64050.044    630194.76 
Loop time of 0.0724661 on 2 procs for 1 steps with 31126 atoms

209.8% CPU use with 1 MPI tasks x 2 OpenMP threads
run 1 pre no post no start 20000 stop 30000
Step Temp E_pair E_mol TotEng Press Volume 
   20190    294.99227   -101258.75            0   -100071.93    64050.044    630194.76 
   20191    294.29573   -101255.58            0   -100071.57    64080.407    630183.35 
Loop time of 0.0320451 on 2 procs for 1 steps with 31126 atoms

224.7% CPU use with 1 MPI tasks x 2 OpenMP threads
run 1 pre no post no start 20000 stop 30000
Step Temp E_pair E_mol TotEng Press Volume 
   20191    294.29573   -101255.58            0   -100071.57    64080.407    630183.35 
   20192    293.81471   -101253.33            0   -100071.24    64109.341    630171.95 
Loop time of 0.0295641 on 2 procs for 1 steps with 31126 atoms

202.9% CPU use with 1 MPI tasks x 2 OpenMP threads
run 1 pre no post no start 20000 stop 30000
Step Temp E_pair E_mol TotEng Press Volume 
   20192    293.81471   -101253.33            0   -100071.24    64109.341    630171.95 
   20193    293.63615   -101252.33            0   -100070.97     64132.61    630160.54 
Loop time of 0.0307131 on 2 procs for 1 steps with 31126 atoms

195.4% CPU use with 1 MPI tasks x 2 OpenMP threads
run 1 pre no post no start 20000 stop 30000
Step Temp E_pair E_mol TotEng Press Volume 
   20193    293.63615   -101252.33            0   -100070.97     64132.61    630160.54 
   20194    293.68702   -101252.27            0    -100070.7    64152.621    630149.14 
Loop time of 0.029381 on 2 procs for 1 steps with 31126 atoms

217.8% CPU use with 1 MPI tasks x 2 OpenMP threads
run 1 pre no post no start 20000 stop 30000
Step Temp E_pair E_mol TotEng Press Volume 
   20194    293.68702   -101252.27            0    -100070.7    64152.621    630149.14 
   20195     293.8448   -101252.62            0   -100070.41    64174.592    630137.73 
Loop time of 0.049021 on 2 procs for 1 steps with 31126 atoms

204.0% CPU use with 1 MPI tasks x 2 OpenMP threads
run 1 pre no post no start 20000 stop 30000
Step Temp E_pair E_mol TotEng Press Volume 
   20195     293.8448   -101252.62            0   -100070.41    64174.592    630137.73 
   20196     294.0341   -101253.08            0   -100070.12    64202.293    630126.32 
Loop time of 0.0493941 on 2 procs for 1 steps with 31126 atoms

202.5% CPU use with 1 MPI tasks x 2 OpenMP threads
run 1 pre no post no start 20000 stop 30000
Step Temp E_pair E_mol TotEng Press Volume 
   20196     294.0341   -101253.08            0   -100070.12    64202.293    630126.32 
   20197    294.21969   -101253.54            0   -100069.83    64236.725    630114.92 
Loop time of 0.05006 on 2 procs for 1 steps with 31126 atoms

175.8% CPU use with 1 MPI tasks x 2 OpenMP threads
run 1 pre no post no start 20000 stop 30000
Step Temp E_pair E_mol TotEng Press Volume 
   20197    294.21969   -101253.54            0   -100069.83    64236.725    630114.92 
   20198    294.36715   -101253.84            0   -100069.54    64279.178    630103.51 
Loop time of 0.049232 on 2 procs for 1 steps with 31126 atoms

203.1% CPU use with 1 MPI tasks x 2 OpenMP threads
run 1 pre no post no start 20000 stop 30000
Step Temp E_pair E_mol TotEng Press Volume 
   20198    294.36715   -101253.84            0   -100069.54    64279.178    630103.51 
   20199    294.45098   -101253.87            0   -100069.23    64329.392     630092.1 
Loop time of 0.0491731 on 2 procs for 1 steps with 31126 atoms

203.4% CPU use with 1 MPI tasks x 2 OpenMP threads
run 1 pre no post no start 20000 stop 30000
Step Temp E_pair E_mol TotEng Press Volume 
   20199    294.45098   -101253.87            0   -100069.23    64329.392     630092.1 
   20200    294.50341   -101253.75            0   -100068.89    64383.532     630080.7 
Loop time of 0.0803931 on 2 procs for 1 steps with 31126 atoms

204.0% CPU use with 1 MPI tasks x 2 OpenMP threads
run 1 pre no post no start 20000 stop 30000
Step Temp E_pair E_mol TotEng Press Volume 
   20200    294.50341   -101253.75            0   -100068.89    64383.532     630080.7 
   20201    294.62485    -101253.9            0   -100068.56    64435.455    630069.29 
Loop time of 0.0344679 on 2 procs for 1 steps with 31126 atoms

208.9% CPU use with 1 MPI tasks x 2 OpenMP threads
run 1 pre no post no start 20000 stop 30000
Step Temp E_pair E_mol TotEng Press Volume 
   20201    294.62485    -101253.9            0   -100068.56    64435.455    630069.29 
   20202    294.90802   -101254.74            0   -100068.26    64479.035    630057.89 
Loop time of 0.0305469 on 2 procs for 1 steps with 31126 atoms

209.5% CPU use with 1 MPI tasks x 2 OpenMP threads
run 1 pre no post no start 20000 stop 30000
Step Temp E_pair E_mol TotEng Press Volume 
   20202    294.90802   -101254.74            0   -100068.26    64479.035    630057.89 
   20203    295.33252   -101256.18            0   -100067.99    64513.308    630046.48 
Loop time of 0.032048 on 2 procs for 1 steps with 31126 atoms

199.7% CPU use with 1 MPI tasks x 2 OpenMP threads
run 1 pre no post no start 20000 stop 30000
Step Temp E_pair E_mol TotEng Press Volume 
   20203    295.33252   -101256.18            0   -100067.99    64513.308    630046.48 
   20204    295.74475   -101257.58            0   -100067.73    64543.686    630035.07 
Loop time of 0.0305042 on 2 procs for 1 steps with 31126 atoms

209.8% CPU use with 1 MPI tasks x 2 OpenMP threads
run 1 pre no post no start 20000 stop 30000
Step Temp E_pair E_mol TotEng Press Volume 
   20204    295.74475   -101257.58            0   -100067.73    64543.686    630035.07 
   20205    295.97705   -101258.22            0   -100067.44    64576.944    630023.67 
Loop time of 0.0314238 on 2 procs for 1 steps with 31126 atoms

203.7% CPU use with 1 MPI tasks x 2 OpenMP threads
run 1 pre no post no start 20000 stop 30000
Step Temp E_pair E_mol TotEng Press Volume 
   20205    295.97705   -101258.22            0   -100067.44    64576.944    630023.67 
   20206    295.98231   -101257.91            0   -100067.11    64614.784    630012.26 
Loop time of 0.0296478 on 2 procs for 1 steps with 31126 atoms

215.9% CPU use with 1 MPI tasks x 2 OpenMP threads
run 1 pre no post no start 20000 stop 30000
Step Temp E_pair E_mol TotEng Press Volume 
[...]
Loop time of 0.052223 on 2 procs for 2 steps with 31126 atoms

199.1% CPU use with 1 MPI tasks x 2 OpenMP threads
run 2 pre no post no start 20000 stop 30000
Step Temp E_pair E_mol TotEng Press Volume 
   21239    293.46228   -100955.88            0   -99775.219     69392.23    618229.61 
   21241    294.48399   -100959.58            0   -99774.807    69293.161     618206.8 
Loop time of 0.0883222 on 2 procs for 2 steps with 31126 atoms

203.8% CPU use with 1 MPI tasks x 2 OpenMP threads
run 2 pre no post no start 20000 stop 30000
Step Temp E_pair E_mol TotEng Press Volume 
   21241    294.48399   -100959.58            0   -99774.807    69293.161     618206.8 
   21243    295.22504   -100962.15            0   -99774.399    69202.476    618183.99 
Loop time of 0.056216 on 2 procs for 2 steps with 31126 atoms

220.6% CPU use with 1 MPI tasks x 2 OpenMP threads
run 2 pre no post no start 20000 stop 30000
Step Temp E_pair E_mol TotEng Press Volume 
   21243    295.22504   -100962.15            0   -99774.399    69202.476    618183.99 
   21245    294.32178   -100957.89            0   -99773.767    69193.996    618161.18 
Loop time of 0.0541139 on 2 procs for 2 steps with 31126 atoms

199.6% CPU use with 1 MPI tasks x 2 OpenMP threads
run 2 pre no post no start 20000 stop 30000
Step Temp E_pair E_mol TotEng Press Volume 
   21245    294.32178   -100957.89            0   -99773.767    69193.996    618161.18 
   21247    293.12241   -100952.44            0   -99773.143    69214.494    618138.36 
Loop time of 0.0527649 on 2 procs for 2 steps with 31126 atoms

212.3% CPU use with 1 MPI tasks x 2 OpenMP threads
run 2 pre no post no start 20000 stop 30000
Step Temp E_pair E_mol TotEng Press Volume 
   21247    293.12241   -100952.44            0   -99773.143    69214.494    618138.36 
   21249    293.04378   -100951.67            0   -99772.687    69202.353    618115.55 
Loop time of 0.053046 on 2 procs for 2 steps with 31126 atoms

211.1% CPU use with 1 MPI tasks x 2 OpenMP threads
run 2 pre no post no start 20000 stop 30000
Step Temp E_pair E_mol TotEng Press Volume 
   21249    293.04378   -100951.67            0   -99772.687    69202.353    618115.55 
   21251      293.252   -100952.07            0   -99772.257    69194.484    618092.74 
Loop time of 0.089576 on 2 procs for 2 steps with 31126 atoms

205.4% CPU use with 1 MPI tasks x 2 OpenMP threads
run 2 pre no post no start 20000 stop 30000
Step Temp E_pair E_mol TotEng Press Volume 
   21251      293.252   -100952.07            0   -99772.257    69194.484    618092.74 
   21253    292.83082   -100949.72            0   -99771.598    69223.527    618069.93 
Loop time of 0.055836 on 2 procs for 2 steps with 31126 atoms

207.8% CPU use with 1 MPI tasks x 2 OpenMP threads
run 2 pre no post no start 20000 stop 30000
Step Temp E_pair E_mol TotEng Press Volume 
   21253    292.83082   -100949.72            0   -99771.598    69223.527    618069.93 
   21255    293.26152   -100950.94            0   -99771.079     69226.85    618047.11 
Loop time of 0.054105 on 2 procs for 2 steps with 31126 atoms

214.4% CPU use with 1 MPI tasks x 2 OpenMP threads
run 2 pre no post no start 20000 stop 30000
Step Temp E_pair E_mol TotEng Press Volume 
   21255    293.26152   -100950.94            0   -99771.079     69226.85    618047.11 
   21257    294.47676   -100955.48            0   -99770.734    69211.332     618024.3 
Loop time of 0.054414 on 2 procs for 2 steps with 31126 atoms

205.8% CPU use with 1 MPI tasks x 2 OpenMP threads
run 2 pre no post no start 20000 stop 30000
Step Temp E_pair E_mol TotEng Press Volume 
   21257    294.47676   -100955.48            0   -99770.734    69211.332     618024.3 
   21259     294.4291   -100954.74            0   -99770.182     69264.69    618001.49 
Loop time of 0.0539432 on 2 procs for 2 steps with 31126 atoms

200.2% CPU use with 1 MPI tasks x 2 OpenMP threads
run 2 pre no post no start 20000 stop 30000
Step Temp E_pair E_mol TotEng Press Volume 
   21259     294.4291   -100954.74            0   -99770.182     69264.69    618001.49 
   21261    293.45842    -100950.2            0   -99769.553    69361.553    617978.68 
Loop time of 0.089324 on 2 procs for 2 steps with 31126 atoms

197.0% CPU use with 1 MPI tasks x 2 OpenMP threads
run 2 pre no post no start 20000 stop 30000
Step Temp E_pair E_mol TotEng Press Volume 
   21261    293.45842    -100950.2            0   -99769.553    69361.553    617978.68 
   21263    293.14143   -100948.42            0   -99769.047    69418.191    617955.86 
Loop time of 0.056596 on 2 procs for 2 steps with 31126 atoms

205.0% CPU use with 1 MPI tasks x 2 OpenMP threads
run 2 pre no post no start 20000 stop 30000
Step Temp E_pair E_mol TotEng Press Volume 
   21263    293.14143   -100948.42            0   -99769.047    69418.191    617955.86 
   21265    293.52034   -100949.48            0   -99768.583    69435.604    617933.05 
Loop time of 0.0536401 on 2 procs for 2 steps with 31126 atoms

208.8% CPU use with 1 MPI tasks x 2 OpenMP threads
run 2 pre no post no start 20000 stop 30000
Step Temp E_pair E_mol TotEng Press Volume 
   21265    293.52034   -100949.48            0   -99768.583    69435.604    617933.05 
   21267    293.95894   -100950.71            0   -99768.045    69455.654    617910.24 
Loop time of 0.053802 on 2 procs for 2 steps with 31126 atoms

215.6% CPU use with 1 MPI tasks x 2 OpenMP threads
run 2 pre no post no start 20000 stop 30000
Step Temp E_pair E_mol TotEng Press Volume 
   21267    293.95894   -100950.71            0   -99768.045    69455.654    617910.24 
   21269    294.64571   -100952.94            0   -99767.514    69470.801    617887.43 
Loop time of 0.053863 on 2 procs for 2 steps with 31126 atoms

215.4% CPU use with 1 MPI tasks x 2 OpenMP threads
run 2 pre no post no start 20000 stop 30000
Step Temp E_pair E_mol TotEng Press Volume 
   21269    294.64571   -100952.94            0   -99767.514    69470.801    617887.43 
   21271    295.78058   -100957.03            0   -99767.034     69455.71    617864.61 
Loop time of 0.0895751 on 2 procs for 2 steps with 31126 atoms

209.9% CPU use with 1 MPI tasks x 2 OpenMP threads
run 2 pre no post no start 20000 stop 30000
Step Temp E_pair E_mol TotEng Press Volume 
   21271    295.78058   -100957.03            0   -99767.034     69455.71    617864.61 
   21273    296.86942   -100960.93            0   -99766.555    69419.958     617841.8 
Loop time of 0.0575092 on 2 procs for 2 steps with 31126 atoms

194.8% CPU use with 1 MPI tasks x 2 OpenMP threads
run 2 pre no post no start 20000 stop 30000
Step Temp E_pair E_mol TotEng Press Volume 
   21273    296.86942   -100960.93            0   -99766.555    69419.958     617841.8 
   21275    297.27241   -100962.08            0   -99766.089    69396.815    617818.99 
Loop time of 0.0539072 on 2 procs for 2 steps with 31126 atoms

207.8% CPU use with 1 MPI tasks x 2 OpenMP threads
run 2 pre no post no start 20000 stop 30000
Step Temp E_pair E_mol TotEng Press Volume 
   21275    297.27241   -100962.08            0   -99766.089    69396.815    617818.99 
   21277    296.27109   -100957.55            0   -99765.586    69432.324    617796.18 
Loop time of 0.0542262 on 2 procs for 2 steps with 31126 atoms

199.2% CPU use with 1 MPI tasks x 2 OpenMP threads
run 2 pre no post no start 20000 stop 30000
Step Temp E_pair E_mol TotEng Press Volume 
   21277    296.27109   -100957.55            0   -99765.586    69432.324    617796.18 
   21279    293.85633   -100947.22            0   -99764.969    69533.795    617773.36 
Loop time of 0.0545449 on 2 procs for 2 steps with 31126 atoms

220.0% CPU use with 1 MPI tasks x 2 OpenMP threads
run 2 pre no post no start 20000 stop 30000
Step Temp E_pair E_mol TotEng Press Volume 
   21279    293.85633   -100947.22            0   -99764.969    69533.795    617773.36 
   21281    291.59687   -100937.49            0   -99764.326    69625.505    617750.55 
Loop time of 0.0915909 on 2 procs for 2 steps with 31126 atoms

209.6% CPU use with 1 MPI tasks x 2 OpenMP threads
run 2 pre no post no start 20000 stop 30000
Step Temp E_pair E_mol TotEng Press Volume 
   21281    291.59687   -100937.49            0   -99764.326    69625.505    617750.55 
   21283    291.29723   -100935.77            0    -99763.82     69627.44    617727.74 
Loop time of 0.0557899 on 2 procs for 2 steps with 31126 atoms

215.1% CPU use with 1 MPI tasks x 2 OpenMP threads
run 2 pre no post no start 20000 stop 30000
Step Temp E_pair E_mol TotEng Press Volume 
   21283    291.29723   -100935.77            0    -99763.82     69627.44    617727.74 
   21285    292.72857   -100941.15            0    -99763.44    69562.447    617704.93 
Loop time of 0.0547252 on 2 procs for 2 steps with 31126 atoms

212.0% CPU use with 1 MPI tasks x 2 OpenMP threads
run 2 pre no post no start 20000 stop 30000
Step Temp E_pair E_mol TotEng Press Volume 
   21285    292.72857   -100941.15            0    -99763.44    69562.447    617704.93 
   21287    294.03036   -100945.88            0   -99762.934    69528.285    617682.11 
Loop time of 0.053967 on 2 procs for 2 steps with 31126 atoms

214.9% CPU use with 1 MPI tasks x 2 OpenMP threads
run 2 pre no post no start 20000 stop 30000
Step Temp E_pair E_mol TotEng Press Volume 
   21287    294.03036   -100945.88            0   -99762.934    69528.285    617682.11 
   21289    294.68263   -100947.97            0   -99762.395     69549.63     617659.3 
Loop time of 0.0545511 on 2 procs for 2 steps with 31126 atoms

205.3% CPU use with 1 MPI tasks x 2 OpenMP threads
run 2 pre no post no start 20000 stop 30000
Step Temp E_pair E_mol TotEng Press Volume 
   21289    294.68263   -100947.97            0   -99762.395     69549.63     617659.3 
   21291    294.97643   -100948.61            0   -99761.856    69596.844    617636.49 
Loop time of 0.0897591 on 2 procs for 2 steps with 31126 atoms

209.4% CPU use with 1 MPI tasks x 2 OpenMP threads
run 2 pre no post no start 20000 stop 30000
Step Temp E_pair E_mol TotEng Press Volume 
   21291    294.97643   -100948.61            0   -99761.856    69596.844    617636.49 
   21293    295.14665   -100948.79            0   -99761.354    69640.762    617613.68 
Loop time of 0.0576742 on 2 procs for 2 steps with 31126 atoms

208.1% CPU use with 1 MPI tasks x 2 OpenMP threads
run 2 pre no post no start 20000 stop 30000
Step Temp E_pair E_mol TotEng Press Volume 
   21293    295.14665   -100948.79            0   -99761.354    69640.762    617613.68 
   21295    294.86076   -100947.17            0   -99760.875    69688.081    617590.86 
Loop time of 0.0569279 on 2 procs for 2 steps with 31126 atoms

203.8% CPU use with 1 MPI tasks x 2 OpenMP threads
run 2 pre no post no start 20000 stop 30000
Step Temp E_pair E_mol TotEng Press Volume 
   21295    294.86076   -100947.17            0   -99760.875    69688.081    617590.86 
   21297    293.74911    -100942.1            0   -99760.278    69752.614    617568.05 
Loop time of 0.0546179 on 2 procs for 2 steps with 31126 atoms

212.4% CPU use with 1 MPI tasks x 2 OpenMP threads
run 2 pre no post no start 20000 stop 30000
Step Temp E_pair E_mol TotEng Press Volume 
   21297    293.74911    -100942.1            0   -99760.278    69752.614    617568.05 
   21299    292.87573   -100937.98            0   -99759.675    69791.624    617545.24 
Loop time of 0.055063 on 2 procs for 2 steps with 31126 atoms

217.9% CPU use with 1 MPI tasks x 2 OpenMP threads
run 2 pre no post no start 20000 stop 30000
Step Temp E_pair E_mol TotEng Press Volume 
   21299    292.87573   -100937.98            0   -99759.675    69791.624    617545.24 
   21300    292.94622   -100938.01            0   -99759.426    69782.747    617533.83 
   21301    293.35836   -100939.47            0    -99759.22    69754.077    617522.43 
Loop time of 0.100616 on 2 procs for 2 steps with 31126 atoms

206.7% CPU use with 1 MPI tasks x 2 OpenMP threads
run 2 pre no post no start 20000 stop 30000
Step Temp E_pair E_mol TotEng Press Volume 
   21301    293.35836   -100939.47            0    -99759.22    69754.077    617522.43 
   21303    294.37631   -100943.16            0   -99758.817    69671.045    617499.61 
Loop time of 0.0563838 on 2 procs for 2 steps with 31126 atoms

212.8% CPU use with 1 MPI tasks x 2 OpenMP threads
run 2 pre no post no start 20000 stop 30000
Step Temp E_pair E_mol TotEng Press Volume 
   21303    294.37631   -100943.16            0   -99758.817    69671.045    617499.61 
   21305     294.3997   -100942.72            0   -99758.283    69607.597     617476.8 
Loop time of 0.0535631 on 2 procs for 2 steps with 31126 atoms

209.1% CPU use with 1 MPI tasks x 2 OpenMP threads
run 2 pre no post no start 20000 stop 30000
Step Temp E_pair E_mol TotEng Press Volume 
   21305     294.3997   -100942.72            0   -99758.283    69607.597     617476.8 
   21307    293.67491   -100939.18            0   -99757.663    69555.823    617453.99 
Loop time of 0.0555682 on 2 procs for 2 steps with 31126 atoms

201.6% CPU use with 1 MPI tasks x 2 OpenMP threads
run 2 pre no post no start 20000 stop 30000
Step Temp E_pair E_mol TotEng Press Volume 
   21307    293.67491   -100939.18            0   -99757.663    69555.823    617453.99 
   21309    293.58722   -100938.31            0   -99757.141    69467.983    617431.18 
Loop time of 0.053561 on 2 procs for 2 steps with 31126 atoms

216.6% CPU use with 1 MPI tasks x 2 OpenMP threads
run 2 pre no post no start 20000 stop 30000
Step Temp E_pair E_mol TotEng Press Volume 
   21309    293.58722   -100938.31            0   -99757.141    69467.983    617431.18 
   21311      294.193   -100940.34            0   -99756.732    69359.052    617408.36 
Loop time of 0.0892541 on 2 procs for 2 steps with 31126 atoms

206.2% CPU use with 1 MPI tasks x 2 OpenMP threads
run 2 pre no post no start 20000 stop 30000
Step Temp E_pair E_mol TotEng Press Volume 
   21311      294.193   -100940.34            0   -99756.732    69359.052    617408.36 
   21313    294.10569   -100939.48            0   -99756.224    69299.251    617385.55 
Loop time of 0.0547152 on 2 procs for 2 steps with 31126 atoms

212.0% CPU use with 1 MPI tasks x 2 OpenMP threads
run 2 pre no post no start 20000 stop 30000
Step Temp E_pair E_mol TotEng Press Volume 
   21313    294.10569   -100939.48            0   -99756.224    69299.251    617385.55 
   21315     293.1465   -100935.01            0   -99755.614    69301.211    617362.74 
Loop time of 0.0528278 on 2 procs for 2 steps with 31126 atoms

212.0% CPU use with 1 MPI tasks x 2 OpenMP threads
run 2 pre no post no start 20000 stop 30000
Step Temp E_pair E_mol TotEng Press Volume 
   21315     293.1465   -100935.01            0   -99755.614    69301.211    617362.74 
   21317     292.4455   -100931.67            0   -99755.092     69311.19    617339.93 
Loop time of 0.053616 on 2 procs for 2 steps with 31126 atoms

216.4% CPU use with 1 MPI tasks x 2 OpenMP threads
run 2 pre no post no start 20000 stop 30000
Step Temp E_pair E_mol TotEng Press Volume 
   21317     292.4455   -100931.67            0   -99755.092     69311.19    617339.93 
   21319    292.34837   -100930.75            0   -99754.572    69302.853    617317.12 
Loop time of 0.053196 on 2 procs for 2 steps with 31126 atoms

218.1% CPU use with 1 MPI tasks x 2 OpenMP threads
run 2 pre no post no start 20000 stop 30000
Step Temp E_pair E_mol TotEng Press Volume 
   21319    292.34837   -100930.75            0   -99754.572    69302.853    617317.12 
   21321     292.7169    -100931.8            0   -99754.132    69277.889     617294.3 
Loop time of 0.08992 on 2 procs for 2 steps with 31126 atoms

209.1% CPU use with 1 MPI tasks x 2 OpenMP threads
run 2 pre no post no start 20000 stop 30000
Step Temp E_pair E_mol TotEng Press Volume 
   21321     292.7169    -100931.8            0   -99754.132    69277.889     617294.3 
   21323    292.70071   -100931.22            0   -99753.622    69271.806    617271.49 
Loop time of 0.0566139 on 2 procs for 2 steps with 31126 atoms

197.8% CPU use with 1 MPI tasks x 2 OpenMP threads
run 2 pre no post no start 20000 stop 30000
Step Temp E_pair E_mol TotEng Press Volume 
   21323    292.70071   -100931.22            0   -99753.622    69271.806    617271.49 
   21325    292.26537   -100928.88            0   -99753.031    69281.873    617248.68 
Loop time of 0.0530491 on 2 procs for 2 steps with 31126 atoms

203.6% CPU use with 1 MPI tasks x 2 OpenMP threads
run 2 pre no post no start 20000 stop 30000
Step Temp E_pair E_mol TotEng Press Volume 
   21325    292.26537   -100928.88            0   -99753.031    69281.873    617248.68 
   21327    292.40177   -100928.93            0    -99752.53     69270.87    617225.87 
Loop time of 0.0539458 on 2 procs for 2 steps with 31126 atoms

207.6% CPU use with 1 MPI tasks x 2 OpenMP threads
run 2 pre no post no start 20000 stop 30000
Step Temp E_pair E_mol TotEng Press Volume 
   21327    292.40177   -100928.93            0    -99752.53     69270.87    617225.87 
   21329    292.86641   -100930.41            0   -99752.141    69265.533    617203.05 
Loop time of 0.0558579 on 2 procs for 2 steps with 31126 atoms

186.2% CPU use with 1 MPI tasks x 2 OpenMP threads
run 2 pre no post no start 20000 stop 30000
Step Temp E_pair E_mol TotEng Press Volume 
   21329    292.86641   -100930.41            0   -99752.141    69265.533    617203.05 
   21331    292.15337      -100927            0     -99751.6    69341.154    617180.24 
Loop time of 0.0930681 on 2 procs for 2 steps with 31126 atoms

202.0% CPU use with 1 MPI tasks x 2 OpenMP threads
run 2 pre no post no start 20000 stop 30000
Step Temp E_pair E_mol TotEng Press Volume 
   21331    292.15337      -100927            0     -99751.6    69341.154    617180.24 
   21333    290.69505   -100920.47            0   -99750.941    69471.111    617157.43 
Loop time of 0.0593119 on 2 procs for 2 steps with 31126 atoms

209.1% CPU use with 1 MPI tasks x 2 OpenMP threads
run 2 pre no post no start 20000 stop 30000
Step Temp E_pair E_mol TotEng Press Volume 
   21333    290.69505   -100920.47            0   -99750.941    69471.111    617157.43 
   21335    290.44594   -100918.95            0    -99750.42    69549.347    617134.62 
Loop time of 0.053674 on 2 procs for 2 steps with 31126 atoms

208.7% CPU use with 1 MPI tasks x 2 OpenMP threads
run 2 pre no post no start 20000 stop 30000
Step Temp E_pair E_mol TotEng Press Volume 
   21335    290.44594   -100918.95            0    -99750.42    69549.347    617134.62 
   21337    291.68567   -100923.52            0   -99750.002     69544.38     617111.8 
Loop time of 0.0549989 on 2 procs for 2 steps with 31126 atoms

218.2% CPU use with 1 MPI tasks x 2 OpenMP threads
run 2 pre no post no start 20000 stop 30000
Step Temp E_pair E_mol TotEng Press Volume 
   21337    291.68567   -100923.52            0   -99750.002     69544.38     617111.8 
   21339    292.96415   -100928.25            0    -99749.59    69517.362    617088.99 
Loop time of 0.0560939 on 2 procs for 2 steps with 31126 atoms

221.1% CPU use with 1 MPI tasks x 2 OpenMP threads
run 2 pre no post no start 20000 stop 30000
Step Temp E_pair E_mol TotEng Press Volume 
   21339    292.96415   -100928.25            0    -99749.59    69517.362    617088.99 
   21341    292.90041   -100927.42            0   -99749.012    69535.482    617066.18 
Loop time of 0.0907249 on 2 procs for 2 steps with 31126 atoms

202.8% CPU use with 1 MPI tasks x 2 OpenMP threads
run 2 pre no post no start 20000 stop 30000
Step Temp E_pair E_mol TotEng Press Volume 
   21341    292.90041   -100927.42            0   -99749.012    69535.482    617066.18 
   21343    292.15287   -100923.81            0   -99748.411    69574.013    617043.37 
Loop time of 0.055511 on 2 procs for 2 steps with 31126 atoms

216.2% CPU use with 1 MPI tasks x 2 OpenMP threads
Total wall time: 0:01:26
