ITEM: TIMESTEP
0
ITEM: NUMBER OF ATOMS
648
ITEM: BOX BOUNDS pp pp pp
0 21.36
0 21.36
0 21.36
ITEM: ATOMS id type xs ys zs
1 1 0 0 0
2 1 0 0.166667 0.166667
3 1 0.0833333 0.0833333 0.0833333
4 1 0.166667 0 0.166667
7 1 0.166667 0.166667 0
9 2 0.0416667 0.0416667 0.0416667
11 2 0.125 0.125 0.0416667
12 2 0.208333 0.0416667 0.208333
13 2 0.0416667 0.208333 0.208333
14 2 0.208333 0.208333 0.0416667
16 2 0.125 0.0416667 0.125
21 2 0.0416667 0.125 0.125
10 2 0.291667 0.208333 0.125
18 2 0.291667 0.125 0.208333
217 1 0.333333 0 0
218 1 0.333333 0.166667 0.166667
219 1 0.416667 0.0833333 0.0833333
225 2 0.375 0.0416667 0.0416667
227 2 0.458333 0.125 0.0416667
229 2 0.375 0.208333 0.208333
232 2 0.458333 0.0416667 0.125
237 2 0.375 0.125 0.125
220 1 0.5 0 0.166667
223 1 0.5 0.166667 0
226 2 0.625 0.208333 0.125
228 2 0.541667 0.0416667 0.208333
230 2 0.541667 0.208333 0.0416667
234 2 0.625 0.125 0.208333
433 1 0.666667 0 0
434 1 0.666667 0.166667 0.166667
441 2 0.708333 0.0416667 0.0416667
445 2 0.708333 0.208333 0.208333
453 2 0.708333 0.125 0.125
435 1 0.75 0.0833333 0.0833333
436 1 0.833333 0 0.166667
439 1 0.833333 0.166667 0
442 2 0.958333 0.208333 0.125
443 2 0.791667 0.125 0.0416667
444 2 0.875 0.0416667 0.208333
446 2 0.875 0.208333 0.0416667
448 2 0.791667 0.0416667 0.125
450 2 0.958333 0.125 0.208333
15 2 0.125 0.291667 0.208333
22 2 0.208333 0.291667 0.125
73 1 0 0.333333 0
75 1 0.0833333 0.416667 0.0833333
76 1 0.166667 0.333333 0.166667
81 2 0.0416667 0.375 0.0416667
83 2 0.125 0.458333 0.0416667
84 2 0.208333 0.375 0.208333
88 2 0.125 0.375 0.125
93 2 0.0416667 0.458333 0.125
6 1 0.25 0.25 0.0833333
23 2 0.291667 0.291667 0.0416667
90 2 0.291667 0.458333 0.208333
231 2 0.458333 0.291667 0.208333
289 1 0.333333 0.333333 0
291 1 0.416667 0.416667 0.0833333
297 2 0.375 0.375 0.0416667
299 2 0.458333 0.458333 0.0416667
304 2 0.458333 0.375 0.125
309 2 0.375 0.458333 0.125
222 1 0.583333 0.25 0.0833333
238 2 0.541667 0.291667 0.125
239 2 0.625 0.291667 0.0416667
292 1 0.5 0.333333 0.166667
300 2 0.541667 0.375 0.208333
306 2 0.625 0.458333 0.208333
505 1 0.666667 0.333333 0
513 2 0.708333 0.375 0.0416667
525 2 0.708333 0.458333 0.125
438 1 0.916667 0.25 0.0833333
447 2 0.791667 0.291667 0.208333
454 2 0.875 0.291667 0.125
455 2 0.958333 0.291667 0.0416667
507 1 0.75 0.416667 0.0833333
508 1 0.833333 0.333333 0.166667
515 2 0.791667 0.458333 0.0416667
516 2 0.875 0.375 0.208333
520 2 0.791667 0.375 0.125
522 2 0.958333 0.458333 0.208333
74 1 0 0.5 0.166667
79 1 0.166667 0.5 0
85 2 0.0416667 0.541667 0.208333
86 2 0.208333 0.541667 0.0416667
87 2 0.125 0.625 0.208333
94 2 0.208333 0.625 0.125
145 1 0 0.666667 0
148 1 0.166667 0.666667 0.166667
153 2 0.0416667 0.708333 0.0416667
156 2 0.208333 0.708333 0.208333
160 2 0.125 0.708333 0.125
78 1 0.25 0.583333 0.0833333
82 2 0.291667 0.541667 0.125
95 2 0.291667 0.625 0.0416667
290 1 0.333333 0.5 0.166667
301 2 0.375 0.541667 0.208333
303 2 0.458333 0.625 0.208333
361 1 0.333333 0.666667 0
369 2 0.375 0.708333 0.0416667
376 2 0.458333 0.708333 0.125
294 1 0.583333 0.583333 0.0833333
295 1 0.5 0.5 0
298 2 0.625 0.541667 0.125
302 2 0.541667 0.541667 0.0416667
310 2 0.541667 0.625 0.125
311 2 0.625 0.625 0.0416667
364 1 0.5 0.666667 0.166667
372 2 0.541667 0.708333 0.208333
506 1 0.666667 0.5 0.166667
517 2 0.708333 0.541667 0.208333
577 1 0.666667 0.666667 0
585 2 0.708333 0.708333 0.0416667
510 1 0.916667 0.583333 0.0833333
511 1 0.833333 0.5 0
514 2 0.958333 0.541667 0.125
518 2 0.875 0.541667 0.0416667
519 2 0.791667 0.625 0.208333
526 2 0.875 0.625 0.125
527 2 0.958333 0.625 0.0416667
580 1 0.833333 0.666667 0.166667
588 2 0.875 0.708333 0.208333
592 2 0.791667 0.708333 0.125
146 1 0 0.833333 0.166667
147 1 0.0833333 0.75 0.0833333
151 1 0.166667 0.833333 0
155 2 0.125 0.791667 0.0416667
157 2 0.0416667 0.875 0.208333
158 2 0.208333 0.875 0.0416667
159 2 0.125 0.958333 0.208333
165 2 0.0416667 0.791667 0.125
166 2 0.208333 0.958333 0.125
150 1 0.25 0.916667 0.0833333
154 2 0.291667 0.875 0.125
162 2 0.291667 0.791667 0.208333
167 2 0.291667 0.958333 0.0416667
362 1 0.333333 0.833333 0.166667
363 1 0.416667 0.75 0.0833333
371 2 0.458333 0.791667 0.0416667
373 2 0.375 0.875 0.208333
375 2 0.458333 0.958333 0.208333
381 2 0.375 0.791667 0.125
366 1 0.583333 0.916667 0.0833333
367 1 0.5 0.833333 0
370 2 0.625 0.875 0.125
374 2 0.541667 0.875 0.0416667
378 2 0.625 0.791667 0.208333
382 2 0.541667 0.958333 0.125
383 2 0.625 0.958333 0.0416667
578 1 0.666667 0.833333 0.166667
589 2 0.708333 0.875 0.208333
597 2 0.708333 0.791667 0.125
579 1 0.75 0.75 0.0833333
582 1 0.916667 0.916667 0.0833333
583 1 0.833333 0.833333 0
586 2 0.958333 0.875 0.125
587 2 0.791667 0.791667 0.0416667
590 2 0.875 0.875 0.0416667
591 2 0.791667 0.958333 0.208333
594 2 0.958333 0.791667 0.208333
598 2 0.875 0.958333 0.125
599 2 0.958333 0.958333 0.0416667
17 2 0.208333 0.125 0.291667
19 2 0.125 0.208333 0.291667
25 1 0 0 0.333333
27 1 0.0833333 0.0833333 0.416667
31 1 0.166667 0.166667 0.333333
33 2 0.0416667 0.0416667 0.375
35 2 0.125 0.125 0.375
38 2 0.208333 0.208333 0.375
40 2 0.125 0.0416667 0.458333
45 2 0.0416667 0.125 0.458333
8 1 0.25 0.0833333 0.25
24 2 0.291667 0.0416667 0.291667
34 2 0.291667 0.208333 0.458333
235 2 0.458333 0.208333 0.291667
241 1 0.333333 0 0.333333
243 1 0.416667 0.0833333 0.416667
249 2 0.375 0.0416667 0.375
251 2 0.458333 0.125 0.375
256 2 0.458333 0.0416667 0.458333
261 2 0.375 0.125 0.458333
224 1 0.583333 0.0833333 0.25
233 2 0.541667 0.125 0.291667
240 2 0.625 0.0416667 0.291667
247 1 0.5 0.166667 0.333333
250 2 0.625 0.208333 0.458333
254 2 0.541667 0.208333 0.375
457 1 0.666667 0 0.333333
465 2 0.708333 0.0416667 0.375
477 2 0.708333 0.125 0.458333
440 1 0.916667 0.0833333 0.25
449 2 0.875 0.125 0.291667
451 2 0.791667 0.208333 0.291667
456 2 0.958333 0.0416667 0.291667
459 1 0.75 0.0833333 0.416667
463 1 0.833333 0.166667 0.333333
466 2 0.958333 0.208333 0.458333
467 2 0.791667 0.125 0.375
470 2 0.875 0.208333 0.375
472 2 0.791667 0.0416667 0.458333
5 1 0.0833333 0.25 0.25
20 2 0.0416667 0.291667 0.291667
46 2 0.208333 0.291667 0.458333
89 2 0.208333 0.458333 0.291667
97 1 0 0.333333 0.333333
99 1 0.0833333 0.416667 0.416667
105 2 0.0416667 0.375 0.375
107 2 0.125 0.458333 0.375
112 2 0.125 0.375 0.458333
117 2 0.0416667 0.458333 0.458333
30 1 0.25 0.25 0.416667
47 2 0.291667 0.291667 0.375
80 1 0.25 0.416667 0.25
96 2 0.291667 0.375 0.291667
221 1 0.416667 0.25 0.25
236 2 0.375 0.291667 0.291667
313 1 0.333333 0.333333 0.333333
315 1 0.416667 0.416667 0.416667
321 2 0.375 0.375 0.375
323 2 0.458333 0.458333 0.375
328 2 0.458333 0.375 0.458333
333 2 0.375 0.458333 0.458333
246 1 0.583333 0.25 0.416667
262 2 0.541667 0.291667 0.458333
263 2 0.625 0.291667 0.375
296 1 0.583333 0.416667 0.25
305 2 0.541667 0.458333 0.291667
312 2 0.625 0.375 0.291667
452 2 0.708333 0.291667 0.291667
529 1 0.666667 0.333333 0.333333
537 2 0.708333 0.375 0.375
549 2 0.708333 0.458333 0.458333
437 1 0.75 0.25 0.25
462 1 0.916667 0.25 0.416667
478 2 0.875 0.291667 0.458333
479 2 0.958333 0.291667 0.375
512 1 0.916667 0.416667 0.25
521 2 0.875 0.458333 0.291667
528 2 0.958333 0.375 0.291667
531 1 0.75 0.416667 0.416667
539 2 0.791667 0.458333 0.375
544 2 0.791667 0.375 0.458333
77 1 0.0833333 0.583333 0.25
91 2 0.125 0.541667 0.291667
92 2 0.0416667 0.625 0.291667
103 1 0.166667 0.5 0.333333
110 2 0.208333 0.541667 0.375
118 2 0.208333 0.625 0.458333
169 1 0 0.666667 0.333333
177 2 0.0416667 0.708333 0.375
184 2 0.125 0.708333 0.458333
102 1 0.25 0.583333 0.416667
106 2 0.291667 0.541667 0.458333
119 2 0.291667 0.625 0.375
168 2 0.291667 0.708333 0.291667
293 1 0.416667 0.583333 0.25
307 2 0.458333 0.541667 0.291667
308 2 0.375 0.625 0.291667
385 1 0.333333 0.666667 0.333333
393 2 0.375 0.708333 0.375
400 2 0.458333 0.708333 0.458333
318 1 0.583333 0.583333 0.416667
319 1 0.5 0.5 0.333333
322 2 0.625 0.541667 0.458333
326 2 0.541667 0.541667 0.375
334 2 0.541667 0.625 0.458333
335 2 0.625 0.625 0.375
384 2 0.625 0.708333 0.291667
524 2 0.708333 0.625 0.291667
601 1 0.666667 0.666667 0.333333
609 2 0.708333 0.708333 0.375
509 1 0.75 0.583333 0.25
523 2 0.791667 0.541667 0.291667
534 1 0.916667 0.583333 0.416667
535 1 0.833333 0.5 0.333333
538 2 0.958333 0.541667 0.458333
542 2 0.875 0.541667 0.375
550 2 0.875 0.625 0.458333
551 2 0.958333 0.625 0.375
600 2 0.958333 0.708333 0.291667
616 2 0.791667 0.708333 0.458333
149 1 0.0833333 0.916667 0.25
161 2 0.208333 0.791667 0.291667
163 2 0.125 0.875 0.291667
164 2 0.0416667 0.958333 0.291667
171 1 0.0833333 0.75 0.416667
175 1 0.166667 0.833333 0.333333
179 2 0.125 0.791667 0.375
182 2 0.208333 0.875 0.375
189 2 0.0416667 0.791667 0.458333
190 2 0.208333 0.958333 0.458333
152 1 0.25 0.75 0.25
174 1 0.25 0.916667 0.416667
178 2 0.291667 0.875 0.458333
191 2 0.291667 0.958333 0.375
365 1 0.416667 0.916667 0.25
379 2 0.458333 0.875 0.291667
380 2 0.375 0.958333 0.291667
387 1 0.416667 0.75 0.416667
395 2 0.458333 0.791667 0.375
405 2 0.375 0.791667 0.458333
368 1 0.583333 0.75 0.25
377 2 0.541667 0.791667 0.291667
390 1 0.583333 0.916667 0.416667
391 1 0.5 0.833333 0.333333
394 2 0.625 0.875 0.458333
398 2 0.541667 0.875 0.375
406 2 0.541667 0.958333 0.458333
407 2 0.625 0.958333 0.375
596 2 0.708333 0.958333 0.291667
621 2 0.708333 0.791667 0.458333
581 1 0.75 0.916667 0.25
584 1 0.916667 0.75 0.25
593 2 0.875 0.791667 0.291667
595 2 0.791667 0.875 0.291667
603 1 0.75 0.75 0.416667
606 1 0.916667 0.916667 0.416667
607 1 0.833333 0.833333 0.333333
610 2 0.958333 0.875 0.458333
611 2 0.791667 0.791667 0.375
614 2 0.875 0.875 0.375
622 2 0.875 0.958333 0.458333
623 2 0.958333 0.958333 0.375
26 1 0 0.166667 0.5
28 1 0.166667 0 0.5
36 2 0.208333 0.0416667 0.541667
37 2 0.0416667 0.208333 0.541667
41 2 0.208333 0.125 0.625
43 2 0.125 0.208333 0.625
49 1 0 0 0.666667
55 1 0.166667 0.166667 0.666667
57 2 0.0416667 0.0416667 0.708333
59 2 0.125 0.125 0.708333
62 2 0.208333 0.208333 0.708333
32 1 0.25 0.0833333 0.583333
42 2 0.291667 0.125 0.541667
48 2 0.291667 0.0416667 0.625
242 1 0.333333 0.166667 0.5
253 2 0.375 0.208333 0.541667
259 2 0.458333 0.208333 0.625
265 1 0.333333 0 0.666667
273 2 0.375 0.0416667 0.708333
275 2 0.458333 0.125 0.708333
244 1 0.5 0 0.5
248 1 0.583333 0.0833333 0.583333
252 2 0.541667 0.0416667 0.541667
257 2 0.541667 0.125 0.625
258 2 0.625 0.125 0.541667
264 2 0.625 0.0416667 0.625
271 1 0.5 0.166667 0.666667
278 2 0.541667 0.208333 0.708333
458 1 0.666667 0.166667 0.5
469 2 0.708333 0.208333 0.541667
481 1 0.666667 0 0.666667
489 2 0.708333 0.0416667 0.708333
460 1 0.833333 0 0.5
464 1 0.916667 0.0833333 0.583333
468 2 0.875 0.0416667 0.541667
473 2 0.875 0.125 0.625
474 2 0.958333 0.125 0.541667
475 2 0.791667 0.208333 0.625
480 2 0.958333 0.0416667 0.625
487 1 0.833333 0.166667 0.666667
491 2 0.791667 0.125 0.708333
494 2 0.875 0.208333 0.708333
29 1 0.0833333 0.25 0.583333
39 2 0.125 0.291667 0.541667
44 2 0.0416667 0.291667 0.625
100 1 0.166667 0.333333 0.5
108 2 0.208333 0.375 0.541667
113 2 0.208333 0.458333 0.625
121 1 0 0.333333 0.666667
129 2 0.0416667 0.375 0.708333
131 2 0.125 0.458333 0.708333
71 2 0.291667 0.291667 0.708333
104 1 0.25 0.416667 0.583333
114 2 0.291667 0.458333 0.541667
120 2 0.291667 0.375 0.625
245 1 0.416667 0.25 0.583333
255 2 0.458333 0.291667 0.541667
260 2 0.375 0.291667 0.625
337 1 0.333333 0.333333 0.666667
345 2 0.375 0.375 0.708333
347 2 0.458333 0.458333 0.708333
287 2 0.625 0.291667 0.708333
316 1 0.5 0.333333 0.5
320 1 0.583333 0.416667 0.583333
324 2 0.541667 0.375 0.541667
329 2 0.541667 0.458333 0.625
330 2 0.625 0.458333 0.541667
336 2 0.625 0.375 0.625
476 2 0.708333 0.291667 0.625
553 1 0.666667 0.333333 0.666667
561 2 0.708333 0.375 0.708333
461 1 0.75 0.25 0.583333
471 2 0.791667 0.291667 0.541667
503 2 0.958333 0.291667 0.708333
532 1 0.833333 0.333333 0.5
536 1 0.916667 0.416667 0.583333
540 2 0.875 0.375 0.541667
545 2 0.875 0.458333 0.625
546 2 0.958333 0.458333 0.541667
552 2 0.958333 0.375 0.625
563 2 0.791667 0.458333 0.708333
98 1 0 0.5 0.5
101 1 0.0833333 0.583333 0.583333
109 2 0.0416667 0.541667 0.541667
111 2 0.125 0.625 0.541667
115 2 0.125 0.541667 0.625
116 2 0.0416667 0.625 0.625
127 1 0.166667 0.5 0.666667
134 2 0.208333 0.541667 0.708333
172 1 0.166667 0.666667 0.5
180 2 0.208333 0.708333 0.541667
193 1 0 0.666667 0.666667
201 2 0.0416667 0.708333 0.708333
143 2 0.291667 0.625 0.708333
192 2 0.291667 0.708333 0.625
314 1 0.333333 0.5 0.5
317 1 0.416667 0.583333 0.583333
325 2 0.375 0.541667 0.541667
327 2 0.458333 0.625 0.541667
331 2 0.458333 0.541667 0.625
332 2 0.375 0.625 0.625
409 1 0.333333 0.666667 0.666667
417 2 0.375 0.708333 0.708333
343 1 0.5 0.5 0.666667
350 2 0.541667 0.541667 0.708333
359 2 0.625 0.625 0.708333
388 1 0.5 0.666667 0.5
396 2 0.541667 0.708333 0.541667
408 2 0.625 0.708333 0.625
530 1 0.666667 0.5 0.5
541 2 0.708333 0.541667 0.541667
548 2 0.708333 0.625 0.625
625 1 0.666667 0.666667 0.666667
633 2 0.708333 0.708333 0.708333
533 1 0.75 0.583333 0.583333
543 2 0.791667 0.625 0.541667
547 2 0.791667 0.541667 0.625
559 1 0.833333 0.5 0.666667
566 2 0.875 0.541667 0.708333
575 2 0.958333 0.625 0.708333
604 1 0.833333 0.666667 0.5
612 2 0.875 0.708333 0.541667
624 2 0.958333 0.708333 0.625
170 1 0 0.833333 0.5
173 1 0.0833333 0.916667 0.583333
181 2 0.0416667 0.875 0.541667
183 2 0.125 0.958333 0.541667
185 2 0.208333 0.791667 0.625
187 2 0.125 0.875 0.625
188 2 0.0416667 0.958333 0.625
199 1 0.166667 0.833333 0.666667
203 2 0.125 0.791667 0.708333
206 2 0.208333 0.875 0.708333
176 1 0.25 0.75 0.583333
186 2 0.291667 0.791667 0.541667
215 2 0.291667 0.958333 0.708333
386 1 0.333333 0.833333 0.5
389 1 0.416667 0.916667 0.583333
397 2 0.375 0.875 0.541667
399 2 0.458333 0.958333 0.541667
403 2 0.458333 0.875 0.625
404 2 0.375 0.958333 0.625
419 2 0.458333 0.791667 0.708333
392 1 0.583333 0.75 0.583333
401 2 0.541667 0.791667 0.625
402 2 0.625 0.791667 0.541667
415 1 0.5 0.833333 0.666667
422 2 0.541667 0.875 0.708333
431 2 0.625 0.958333 0.708333
602 1 0.666667 0.833333 0.5
613 2 0.708333 0.875 0.541667
620 2 0.708333 0.958333 0.625
605 1 0.75 0.916667 0.583333
608 1 0.916667 0.75 0.583333
615 2 0.791667 0.958333 0.541667
617 2 0.875 0.791667 0.625
618 2 0.958333 0.791667 0.541667
619 2 0.791667 0.875 0.625
631 1 0.833333 0.833333 0.666667
635 2 0.791667 0.791667 0.708333
638 2 0.875 0.875 0.708333
647 2 0.958333 0.958333 0.708333
50 1 0 0.166667 0.833333
51 1 0.0833333 0.0833333 0.75
52 1 0.166667 0 0.833333
60 2 0.208333 0.0416667 0.875
61 2 0.0416667 0.208333 0.875
64 2 0.125 0.0416667 0.791667
65 2 0.208333 0.125 0.958333
67 2 0.125 0.208333 0.958333
69 2 0.0416667 0.125 0.791667
56 1 0.25 0.0833333 0.916667
58 2 0.291667 0.208333 0.791667
66 2 0.291667 0.125 0.875
72 2 0.291667 0.0416667 0.958333
266 1 0.333333 0.166667 0.833333
267 1 0.416667 0.0833333 0.75
277 2 0.375 0.208333 0.875
280 2 0.458333 0.0416667 0.791667
283 2 0.458333 0.208333 0.958333
285 2 0.375 0.125 0.791667
268 1 0.5 0 0.833333
272 1 0.583333 0.0833333 0.916667
274 2 0.625 0.208333 0.791667
276 2 0.541667 0.0416667 0.875
281 2 0.541667 0.125 0.958333
282 2 0.625 0.125 0.875
288 2 0.625 0.0416667 0.958333
482 1 0.666667 0.166667 0.833333
493 2 0.708333 0.208333 0.875
501 2 0.708333 0.125 0.791667
483 1 0.75 0.0833333 0.75
484 1 0.833333 0 0.833333
488 1 0.916667 0.0833333 0.916667
490 2 0.958333 0.208333 0.791667
492 2 0.875 0.0416667 0.875
496 2 0.791667 0.0416667 0.791667
497 2 0.875 0.125 0.958333
498 2 0.958333 0.125 0.875
499 2 0.791667 0.208333 0.958333
504 2 0.958333 0.0416667 0.958333
53 1 0.0833333 0.25 0.916667
63 2 0.125 0.291667 0.875
68 2 0.0416667 0.291667 0.958333
70 2 0.208333 0.291667 0.791667
123 1 0.0833333 0.416667 0.75
124 1 0.166667 0.333333 0.833333
132 2 0.208333 0.375 0.875
136 2 0.125 0.375 0.791667
137 2 0.208333 0.458333 0.958333
141 2 0.0416667 0.458333 0.791667
54 1 0.25 0.25 0.75
128 1 0.25 0.416667 0.916667
138 2 0.291667 0.458333 0.875
144 2 0.291667 0.375 0.958333
269 1 0.416667 0.25 0.916667
279 2 0.458333 0.291667 0.875
284 2 0.375 0.291667 0.958333
339 1 0.416667 0.416667 0.75
352 2 0.458333 0.375 0.791667
357 2 0.375 0.458333 0.791667
270 1 0.583333 0.25 0.75
286 2 0.541667 0.291667 0.791667
340 1 0.5 0.333333 0.833333
344 1 0.583333 0.416667 0.916667
348 2 0.541667 0.375 0.875
353 2 0.541667 0.458333 0.958333
354 2 0.625 0.458333 0.875
360 2 0.625 0.375 0.958333
500 2 0.708333 0.291667 0.958333
573 2 0.708333 0.458333 0.791667
485 1 0.75 0.25 0.916667
486 1 0.916667 0.25 0.75
495 2 0.791667 0.291667 0.875
502 2 0.875 0.291667 0.791667
555 1 0.75 0.416667 0.75
556 1 0.833333 0.333333 0.833333
560 1 0.916667 0.416667 0.916667
564 2 0.875 0.375 0.875
568 2 0.791667 0.375 0.791667
569 2 0.875 0.458333 0.958333
570 2 0.958333 0.458333 0.875
576 2 0.958333 0.375 0.958333
122 1 0 0.5 0.833333
125 1 0.0833333 0.583333 0.916667
133 2 0.0416667 0.541667 0.875
135 2 0.125 0.625 0.875
139 2 0.125 0.541667 0.958333
140 2 0.0416667 0.625 0.958333
142 2 0.208333 0.625 0.791667
196 1 0.166667 0.666667 0.833333
204 2 0.208333 0.708333 0.875
208 2 0.125 0.708333 0.791667
126 1 0.25 0.583333 0.75
130 2 0.291667 0.541667 0.791667
216 2 0.291667 0.708333 0.958333
338 1 0.333333 0.5 0.833333
341 1 0.416667 0.583333 0.916667
349 2 0.375 0.541667 0.875
351 2 0.458333 0.625 0.875
355 2 0.458333 0.541667 0.958333
356 2 0.375 0.625 0.958333
424 2 0.458333 0.708333 0.791667
342 1 0.583333 0.583333 0.75
346 2 0.625 0.541667 0.791667
358 2 0.541667 0.625 0.791667
412 1 0.5 0.666667 0.833333
420 2 0.541667 0.708333 0.875
432 2 0.625 0.708333 0.958333
554 1 0.666667 0.5 0.833333
565 2 0.708333 0.541667 0.875
572 2 0.708333 0.625 0.958333
557 1 0.75 0.583333 0.916667
558 1 0.916667 0.583333 0.75
562 2 0.958333 0.541667 0.791667
567 2 0.791667 0.625 0.875
571 2 0.791667 0.541667 0.958333
574 2 0.875 0.625 0.791667
628 1 0.833333 0.666667 0.833333
636 2 0.875 0.708333 0.875
640 2 0.791667 0.708333 0.791667
648 2 0.958333 0.708333 0.958333
194 1 0 0.833333 0.833333
195 1 0.0833333 0.75 0.75
197 1 0.0833333 0.916667 0.916667
205 2 0.0416667 0.875 0.875
207 2 0.125 0.958333 0.875
209 2 0.208333 0.791667 0.958333
211 2 0.125 0.875 0.958333
212 2 0.0416667 0.958333 0.958333
213 2 0.0416667 0.791667 0.791667
214 2 0.208333 0.958333 0.791667
198 1 0.25 0.916667 0.75
200 1 0.25 0.75 0.916667
202 2 0.291667 0.875 0.791667
210 2 0.291667 0.791667 0.875
410 1 0.333333 0.833333 0.833333
411 1 0.416667 0.75 0.75
413 1 0.416667 0.916667 0.916667
421 2 0.375 0.875 0.875
423 2 0.458333 0.958333 0.875
427 2 0.458333 0.875 0.958333
428 2 0.375 0.958333 0.958333
429 2 0.375 0.791667 0.791667
414 1 0.583333 0.916667 0.75
416 1 0.583333 0.75 0.916667
418 2 0.625 0.875 0.791667
425 2 0.541667 0.791667 0.958333
426 2 0.625 0.791667 0.875
430 2 0.541667 0.958333 0.791667
626 1 0.666667 0.833333 0.833333
637 2 0.708333 0.875 0.875
644 2 0.708333 0.958333 0.958333
645 2 0.708333 0.791667 0.791667
627 1 0.75 0.75 0.75
629 1 0.75 0.916667 0.916667
630 1 0.916667 0.916667 0.75
632 1 0.916667 0.75 0.916667
634 2 0.958333 0.875 0.791667
639 2 0.791667 0.958333 0.875
641 2 0.875 0.791667 0.958333
642 2 0.958333 0.791667 0.875
643 2 0.791667 0.875 0.958333
646 2 0.875 0.958333 0.791667
ITEM: TIMESTEP
10
ITEM: NUMBER OF ATOMS
648
ITEM: BOX BOUNDS pp pp pp
0 21.36
0 21.36
0 21.36
ITEM: ATOMS id type xs ys zs
1 1 -0.000199351 0.000231157 -0.000253884
2 1 5.56956e-05 0.166795 0.166622
3 1 0.0833772 0.0831785 0.0836342
4 1 0.166768 -4.43643e-06 0.166571
7 1 0.166681 0.166463 -0.000199255
9 2 0.0418301 0.0414168 0.0419623
11 2 0.124729 0.125269 0.0412945
12 2 0.20796 0.0417053 0.208663
13 2 0.0418459 0.208282 0.208647
14 2 0.20809 0.208233 0.0418078
16 2 0.124692 0.0414714 0.124798
21 2 0.0412676 0.124668 0.125143
10 2 0.291768 0.208591 0.124715
18 2 0.291737 0.125031 0.208399
217 1 0.333325 -0.000222529 -0.000132749
218 1 0.333516 0.166734 0.166901
219 1 0.416954 0.0833112 0.0836156
225 2 0.375288 0.0413905 0.0415799
227 2 0.458587 0.125214 0.0416163
229 2 0.374916 0.208418 0.208046
232 2 0.45799 0.0415095 0.124607
237 2 0.375261 0.124687 0.125246
220 1 0.50023 -0.000131787 0.166538
223 1 0.499808 0.166559 -0.000273566
226 2 0.624829 0.20833 0.12482
228 2 0.541681 0.041321 0.208024
230 2 0.541638 0.208599 0.0414438
234 2 0.62485 0.125156 0.208681
433 1 0.666892 0.000267677 7.3522e-05
434 1 0.666629 0.166433 0.166943
441 2 0.708447 0.0413169 0.0416579
445 2 0.708424 0.208067 0.208246
453 2 0.708087 0.125322 0.124811
435 1 0.750265 0.0834152 0.0832973
436 1 0.833061 -0.0001233 0.166702
439 1 0.833176 0.166446 0.000249585
442 2 0.958584 0.208689 0.125196
443 2 0.791333 0.125208 0.041495
444 2 0.874607 0.0417025 0.208648
446 2 0.874881 0.208443 0.0417801
448 2 0.79204 0.0420723 0.124889
450 2 0.958031 0.12499 0.207985
15 2 0.125086 0.291353 0.208562
22 2 0.208411 0.291828 0.125169
73 1 -5.21694e-05 0.333492 -9.69309e-05
75 1 0.0834626 0.416935 0.0830695
76 1 0.166656 0.33333 0.1667
81 2 0.0419019 0.374719 0.0414496
83 2 0.125389 0.45865 0.0414589
84 2 0.208402 0.374639 0.208595
88 2 0.12526 0.37509 0.125365
93 2 0.0416539 0.45794 0.125293
6 1 0.25028 0.249763 0.0832543
23 2 0.291283 0.291362 0.0416491
90 2 0.291348 0.458099 0.20834
231 2 0.458138 0.291788 0.208551
289 1 0.333455 0.333204 -0.00014683
291 1 0.416894 0.416853 0.0833285
297 2 0.375205 0.374745 0.0419924
299 2 0.458222 0.458224 0.0414955
304 2 0.458053 0.374669 0.124704
309 2 0.37503 0.458177 0.124948
222 1 0.583532 0.249877 0.0835145
238 2 0.541767 0.291263 0.12463
239 2 0.624837 0.291654 0.0416535
292 1 0.499776 0.333178 0.166926
300 2 0.541963 0.375315 0.208331
306 2 0.624748 0.458385 0.208051
505 1 0.666671 0.33356 0.000153012
513 2 0.708556 0.375269 0.0413667
525 2 0.708525 0.458225 0.125212
438 1 0.916468 0.250185 0.0831163
447 2 0.791403 0.291768 0.208716
454 2 0.875292 0.291531 0.124845
455 2 0.958413 0.291854 0.0414915
507 1 0.749884 0.416772 0.0831526
508 1 0.833624 0.333353 0.166715
515 2 0.791317 0.457986 0.0417061
516 2 0.874741 0.375164 0.208485
520 2 0.791529 0.374797 0.124617
522 2 0.9585 0.458398 0.2081
74 1 0.000302905 0.50001 0.166776
79 1 0.166686 0.499875 0.000163742
85 2 0.0419123 0.541481 0.208505
86 2 0.208033 0.541281 0.0412932
87 2 0.125394 0.624593 0.208217
94 2 0.208235 0.624638 0.125385
145 1 0.000246429 0.666675 0.000187488
148 1 0.166698 0.666928 0.166621
153 2 0.0420244 0.708064 0.0416521
156 2 0.208466 0.708604 0.207927
160 2 0.125284 0.708034 0.125266
78 1 0.250073 0.583143 0.083567
82 2 0.291426 0.54134 0.125086
95 2 0.291621 0.62527 0.0416436
290 1 0.333102 0.500272 0.166428
301 2 0.374894 0.541543 0.208316
303 2 0.458566 0.624903 0.20812
361 1 0.333556 0.66676 0.000241775
369 2 0.37519 0.708707 0.0419542
376 2 0.45805 0.7085 0.124994
294 1 0.58342 0.583481 0.0836364
295 1 0.499795 0.500123 0.00020885
298 2 0.625345 0.541344 0.124873
302 2 0.54181 0.541543 0.0414816
310 2 0.541743 0.624893 0.125402
311 2 0.624597 0.624931 0.0417941
364 1 0.500038 0.666467 0.166838
372 2 0.541513 0.708686 0.20798
506 1 0.666867 0.500173 0.166949
517 2 0.708231 0.541469 0.208098
577 1 0.666611 0.666732 8.66261e-05
585 2 0.708611 0.708093 0.0413273
510 1 0.916681 0.583242 0.0834326
511 1 0.833513 0.499959 0.000277744
514 2 0.958301 0.541373 0.125302
518 2 0.874734 0.541308 0.041552
519 2 0.791861 0.625027 0.20821
526 2 0.874876 0.624607 0.125064
527 2 0.958495 0.62498 0.0417999
580 1 0.833477 0.666971 0.166676
588 2 0.874951 0.7082 0.208372
592 2 0.791736 0.708322 0.124603
146 1 0.000155407 0.833459 0.166866
147 1 0.0833828 0.749703 0.0835705
151 1 0.166684 0.833104 0.000164401
155 2 0.124626 0.791545 0.0413675
157 2 0.0415008 0.875295 0.208046
158 2 0.208508 0.874869 0.0420495
159 2 0.124988 0.958533 0.208119
165 2 0.0414977 0.791444 0.124759
166 2 0.208668 0.958452 0.125105
150 1 0.249855 0.916515 0.0832907
154 2 0.29147 0.875368 0.12519
162 2 0.291998 0.791287 0.208679
167 2 0.291666 0.95861 0.0418409
362 1 0.333444 0.833095 0.166922
363 1 0.416813 0.749899 0.083455
371 2 0.4583 0.7919 0.0413799
373 2 0.374758 0.875162 0.20872
375 2 0.458699 0.958298 0.20872
381 2 0.374833 0.791679 0.125031
366 1 0.583303 0.916708 0.0831184
367 1 0.500193 0.833513 -0.000176384
370 2 0.624768 0.874827 0.125123
374 2 0.541665 0.874631 0.0420177
378 2 0.624969 0.791403 0.207948
382 2 0.541581 0.958615 0.12539
383 2 0.624888 0.958611 0.04138
578 1 0.666846 0.833077 0.166381
589 2 0.708037 0.875032 0.207975
597 2 0.708125 0.791814 0.125292
579 1 0.750087 0.749766 0.0830355
582 1 0.916613 0.916762 0.0831569
583 1 0.833338 0.833367 0.000240344
586 2 0.958221 0.875349 0.125102
587 2 0.791275 0.791853 0.041643
590 2 0.875247 0.874848 0.0417874
591 2 0.791576 0.958721 0.20838
594 2 0.957975 0.791517 0.208138
598 2 0.875059 0.958208 0.124923
599 2 0.958392 0.957952 0.0417063
17 2 0.208091 0.125288 0.291817
19 2 0.12495 0.208689 0.291743
25 1 0.00024418 -0.000258728 0.333047
27 1 0.0831252 0.0834758 0.416823
31 1 0.166502 0.166788 0.333063
33 2 0.0419556 0.0413504 0.374678
35 2 0.125395 0.125236 0.375343
38 2 0.208463 0.208212 0.375404
40 2 0.125008 0.0414665 0.458598
45 2 0.0420721 0.125068 0.458725
8 1 0.250203 0.0833123 0.250298
24 2 0.29129 0.0417817 0.291286
34 2 0.291316 0.208039 0.458081
235 2 0.4582 0.208404 0.29198
241 1 0.333404 -0.000204217 0.333466
243 1 0.416777 0.0834742 0.41668
249 2 0.375012 0.0419419 0.374683
251 2 0.458572 0.124971 0.37488
256 2 0.45796 0.041865 0.45813
261 2 0.374784 0.124889 0.458404
224 1 0.583189 0.0830366 0.250071
233 2 0.542041 0.125248 0.291681
240 2 0.624848 0.0418977 0.291358
247 1 0.500265 0.166445 0.333435
250 2 0.624975 0.208111 0.458464
254 2 0.541612 0.208733 0.374871
457 1 0.666741 -0.00024081 0.333129
465 2 0.708622 0.0418232 0.374692
477 2 0.708324 0.125048 0.457988
440 1 0.916649 0.0832252 0.250252
449 2 0.874978 0.125162 0.291872
451 2 0.791301 0.208301 0.291709
456 2 0.958387 0.0419092 0.291836
459 1 0.750009 0.0832229 0.416699
463 1 0.833554 0.166761 0.333062
466 2 0.958592 0.20828 0.458179
467 2 0.791646 0.125221 0.375281
470 2 0.875045 0.207956 0.374766
472 2 0.791704 0.041856 0.458657
5 1 0.0836362 0.25022 0.250036
20 2 0.0414123 0.291674 0.291874
46 2 0.20872 0.291803 0.458524
89 2 0.20794 0.457961 0.29192
97 1 -6.35715e-05 0.33322 0.333534
99 1 0.0832627 0.416907 0.416763
105 2 0.041921 0.374985 0.374728
107 2 0.125326 0.458273 0.374863
112 2 0.125252 0.374941 0.458198
117 2 0.0417431 0.458297 0.458239
30 1 0.250225 0.250077 0.41659
47 2 0.292027 0.291828 0.374962
80 1 0.249757 0.4164 0.250209
96 2 0.291557 0.375268 0.291978
221 1 0.416725 0.249935 0.250141
236 2 0.375044 0.291749 0.291648
313 1 0.333589 0.333039 0.333205
315 1 0.416933 0.416708 0.416888
321 2 0.374672 0.375373 0.375259
323 2 0.457951 0.457972 0.375077
328 2 0.458502 0.375266 0.458712
333 2 0.374871 0.458273 0.458666
246 1 0.583591 0.249982 0.416759
262 2 0.541585 0.291463 0.458571
263 2 0.624745 0.291363 0.37477
296 1 0.583145 0.416703 0.250188
305 2 0.541534 0.45802 0.291653
312 2 0.624851 0.374619 0.291871
452 2 0.708199 0.291799 0.291405
529 1 0.66656 0.333339 0.333202
537 2 0.708333 0.374695 0.375055
549 2 0.708606 0.458423 0.458544
437 1 0.749871 0.249864 0.250296
462 1 0.916878 0.250225 0.416556
478 2 0.87522 0.291933 0.458056
479 2 0.958264 0.291662 0.375096
512 1 0.916621 0.416848 0.249712
521 2 0.875291 0.458238 0.291675
528 2 0.958081 0.375313 0.291482
531 1 0.750032 0.416714 0.416968
539 2 0.791511 0.458657 0.375323
544 2 0.791459 0.375163 0.458732
77 1 0.0835796 0.583227 0.250056
91 2 0.125179 0.541817 0.291514
92 2 0.0418092 0.625146 0.291767
103 1 0.166974 0.500211 0.333624
110 2 0.208418 0.541792 0.37506
118 2 0.208269 0.624776 0.458396
169 1 0.000268084 0.666447 0.33354
177 2 0.0413826 0.708361 0.374596
184 2 0.125019 0.708223 0.458702
102 1 0.249832 0.583585 0.416675
106 2 0.291363 0.541992 0.457978
119 2 0.291275 0.624846 0.375067
168 2 0.291891 0.708685 0.292059
293 1 0.416759 0.583346 0.250013
307 2 0.458227 0.541405 0.291287
308 2 0.375386 0.624604 0.29135
385 1 0.333276 0.666936 0.333392
393 2 0.375245 0.707953 0.375064
400 2 0.458551 0.708538 0.458739
318 1 0.583317 0.583627 0.416802
319 1 0.500218 0.500279 0.333416
322 2 0.62474 0.542019 0.458161
326 2 0.541772 0.541724 0.37478
334 2 0.541609 0.624722 0.458122
335 2 0.624666 0.624829 0.374701
384 2 0.624739 0.708674 0.291614
524 2 0.70846 0.625295 0.291308
601 1 0.666395 0.666546 0.333444
609 2 0.708422 0.708523 0.374688
509 1 0.750128 0.583388 0.250234
523 2 0.791348 0.541911 0.291703
534 1 0.916777 0.583324 0.416805
535 1 0.833563 0.500205 0.333599
538 2 0.95812 0.54179 0.458421
542 2 0.874962 0.541454 0.374772
550 2 0.875206 0.624755 0.45821
551 2 0.95807 0.625332 0.375093
600 2 0.958218 0.708602 0.292002
616 2 0.791699 0.708548 0.458407
149 1 0.0833778 0.916865 0.249813
161 2 0.208256 0.791736 0.291618
163 2 0.12534 0.875263 0.291587
164 2 0.0414585 0.958015 0.291793
171 1 0.0830869 0.75022 0.416581
175 1 0.16653 0.83363 0.333196
179 2 0.124753 0.791987 0.374647
182 2 0.208212 0.875171 0.375136
189 2 0.0413234 0.791836 0.458369
190 2 0.20854 0.957984 0.458144
152 1 0.249758 0.749908 0.249997
174 1 0.249773 0.916448 0.416576
178 2 0.291589 0.874707 0.458421
191 2 0.2914 0.95852 0.375135
365 1 0.416715 0.916471 0.250039
379 2 0.458511 0.874663 0.291435
380 2 0.375123 0.958637 0.292037
387 1 0.416796 0.749817 0.416628
395 2 0.458176 0.791551 0.375312
405 2 0.374844 0.791653 0.458389
368 1 0.583421 0.749918 0.249717
377 2 0.54151 0.791738 0.291298
390 1 0.583405 0.916851 0.416694
391 1 0.500038 0.833543 0.333377
394 2 0.624733 0.875342 0.458618
398 2 0.54187 0.875336 0.374666
406 2 0.541874 0.957998 0.458217
407 2 0.624997 0.9582 0.375136
596 2 0.708126 0.958609 0.292056
621 2 0.708633 0.79196 0.458143
581 1 0.749805 0.916701 0.249829
584 1 0.916611 0.749714 0.250216
593 2 0.87523 0.791881 0.291416
595 2 0.791879 0.875216 0.291497
603 1 0.749728 0.749918 0.416769
606 1 0.91657 0.916718 0.41674
607 1 0.833516 0.833538 0.333195
610 2 0.958313 0.874869 0.458394
611 2 0.791567 0.791585 0.374966
614 2 0.875275 0.874807 0.375307