LAMMPS (27 Aug 2016-ICMS)


# ----------------- Init Section -----------------

include "system.in.init"
    units		metal
    boundary	p p p
    atom_style   atomic
    pair_style 	 vashishta
    #pair_modify  mix arithmetic  # LEAVE THIS UNSPECIFIED!


# ----------------- Atom Definition Section -----------------

read_data "system.data"
  orthogonal box = (0 0 0) to (106.8 106.8 106.8)
  1 by 2 by 2 MPI processor grid
  reading atoms ...
  81000 atoms

# ----------------- Settings Section -----------------

include "system.in.settings"
    pair_coeff  * *  SiO2.vashishta Si O
Reading potential file SiO2.vashishta with DATE: 2015-10-14
    pair_modify table 16
    pair_modify tabinner 0.1


# ----------------- Run Section -----------------
include "system.run"


variable N equal 3000
variable T equal 500
variable compressionLength equal 50

velocity	all create ${T} 277387 mom yes
velocity	all create 500 277387 mom yes
include "system.prepare"
#region ID style args keyword arg ...



#Define the region of the sphere
#sphere args = x y z radius
region RsphereID sphere 53.4 53.4 226.8 150     #region RsphereID1 sphere 53.4 53.4 216 150
#region RsphereID2 block 0.0 INF 0.0 INF 80.0 INF
#region RsphereID intersect 2 RsphereID1 RsphereID2
group  sphereID region RsphereID
17581 atoms in group sphereID

#Define the region of the slab
#Group the atoms in the slab
#block args = xlo xhi ylo yhi zlo zhi
region RslabID block 0 INF 0 INF 0 35.6
group  slabID region RslabID
27450 atoms in group slabID

#Define the region that is outside the sphere and slab
#union args = N reg-ID1 reg-ID2 ...
region RbothID union 2 RsphereID RslabID side out

#Delete all atoms exterior to the sphere and slab
#delete_atoms style args keyword value ...
delete_atoms region RbothID
Deleted 35969 atoms, new total = 45031

#Set up reflecting walls at top and bottom face in z-direction
#fix ID group-ID wall/reflect face arg ... keyword value ...
#fix zWallsID all wall/reflect zlo EDGE zhi EDGE


#Freeze the "bottom" of the slab
region RbottomAtomsID block 0.0 INF 0.0 INF 0.0 3.0
group bottomAtomsID region RbottomAtomsID
2700 atoms in group bottomAtomsID
fix freezeID bottomAtomsID setforce 0 0 0
velocity bottomAtomsID set 0 0 0

#read_restart squeeze.1000.restart
#include "system.in.settings"

restart 1000 squeeze*.restart
neighbor	0.3 bin
neigh_modify	delay 10

thermo		100
timestep	0.002

dump myDump all atom 20 SiO2.dump

#Move the top z-boundary downwards
fix deform all deform 1 z delta 0 -${compressionLength} remap x
fix deform all deform 1 z delta 0 -50 remap x

fix nvt all nvt temp ${T} ${T} 1.0
fix nvt all nvt temp 500 ${T} 1.0
fix nvt all nvt temp 500 500 1.0
run ${N}
run 3000
Neighbor list info ...
  1 neighbor list requests
  update every 1 steps, delay 10 steps, check yes
  max neighbors/atom: 2000, page size: 100000
  master list distance cutoff = 5.8
  ghost atom cutoff = 5.8
  binsize = 2.9 -> bins = 37 37 37
Memory usage per processor = 9.37352 Mbytes
Step Temp E_pair E_mol TotEng Press Volume 
       0    469.61881   -143746.01            0   -141012.55     122847.4    1218186.4 
     100    1039.1518   -146784.31            0   -140735.83    15649.393      1199176 
     200    1054.2758   -146994.71            0   -140858.21    15312.134    1180165.6 
     300    1017.7414   -146979.79            0   -141055.94    12764.372    1161155.2 
     400     973.5765   -146972.32            0   -141305.53    11557.564    1142144.8 
     500     928.7331    -146980.1            0   -141574.33    11272.338    1123134.4 
     600    893.02121    -147028.2            0    -141830.3    12439.934      1104124 
     700    872.72962   -147122.58            0   -142042.79    15769.536    1085113.6 
     800    855.35956   -147174.78            0   -142196.08    19627.178    1066103.2 
     900    848.74383   -147239.64            0   -142299.46    21761.683    1047092.8 
    1000     839.9254    -147253.1            0   -142364.24    24083.386    1028082.4 
    1100    829.84097   -147221.06            0    -142390.9    26983.722      1009072 
    1200    820.83971    -147165.9            0   -142388.14    28918.941    990061.63 
    1300    813.06567   -147100.33            0   -142367.82    30696.445    971051.23 
    1400    800.85906    -147007.2            0   -142345.73    31819.724    952040.83 
    1500    787.94229   -146910.27            0   -142323.98    33200.854    933030.43 
    1600    769.93872   -146783.22            0   -142301.72    34976.844    914020.03 
    1700     750.9233   -146638.47            0   -142267.66    36398.976    895009.63 
    1800    730.51825   -146474.67            0   -142222.63     38414.22    875999.23 
    1900    709.99872   -146299.56            0   -142166.95    41539.126    856988.83 
    2000    688.33118   -146094.71            0   -142088.22    44149.282    837978.43 
    2100    669.58112   -145874.86            0    -141977.5    47617.915    818968.03 
    2200     661.5555    -145685.1            0   -141834.46    51694.799    799957.63 
    2300     648.8495   -145432.22            0   -141655.54    56615.101    780947.23 
    2400    639.33601   -145166.74            0   -141445.44    61392.895    761936.83 
    2500    629.97667   -144863.89            0   -141197.06    66662.011    742926.43 
    2600    625.22447   -144530.48            0   -140891.31    73777.424    723916.03 
    2700    620.95786   -144139.63            0   -140525.29    81400.191    704905.63 
    2800    617.59238   -143686.76            0   -140092.02    89732.213    685895.23 
    2900    615.30406   -143150.71            0   -139569.28    99966.174    666884.83 
    3000    609.81207   -142488.04            0   -138938.58    112457.48    647874.43 
Loop time of 546.289 on 4 procs for 3000 steps with 45031 atoms

Performance: 0.949 ns/day, 25.291 hours/ns, 5.492 timesteps/s
84.7% CPU use with 4 MPI tasks x no OpenMP threads

MPI task timing breakdown:
Section |  min time  |  avg time  |  max time  |%varavg| %total
---------------------------------------------------------------
Pair    | 297.38     | 369.19     | 438.79     | 359.0 | 67.58
Neigh   | 43.241     | 55.541     | 67.805     | 164.4 | 10.17
Comm    | 13.827     | 96.884     | 181.44     | 833.9 | 17.73
Output  | 12.694     | 13.208     | 13.69      |  10.8 |  2.42
Modify  | 9.4379     | 10.196     | 10.948     |  22.6 |  1.87
Other   |            | 1.273      |            |       |  0.23

Nlocal:    11257.8 ave 11867 max 10648 min
Histogram: 2 0 0 0 0 0 0 0 0 2
Nghost:    10223.5 ave 10412 max 10022 min
Histogram: 1 1 0 0 0 0 0 0 0 2
Neighs:    0 ave 0 max 0 min
Histogram: 4 0 0 0 0 0 0 0 0 0
FullNghs:  665672 ave 716530 max 615175 min
Histogram: 2 0 0 0 0 0 0 0 0 2

Total # of neighbors = 2662686
Ave neighs/atom = 59.1301
Neighbor list builds = 300
Dangerous builds = 297



# The lines above define the system you want to simulate.
# What you do next is up to you.
# Typically a user would minimize and equilibrate
# the system using commands similar to the following:
#  ----   examples   ----
#
#  -- minimize --
# minimize 1.0e-5 1.0e-7 1000 10000
# (Note: Some fixes, for example "shake", interfere with the minimize command,
#        You can use the "unfix" command to disable them before minimization.)
#  -- declare time step for normal MD --
# timestep 1.0
#  -- run at constant pressure (Nose-Hoover)--
# fix   fxnpt all npt temp 300.0 300.0 100.0 iso 1.0 1.0 1000.0 drag 1.0
#  -- ALTERNATELY, run at constant volume (Nose-Hoover) --
# fix   fxnvt all nvt temp 300.0 300.0 500.0 tchain 1
#  -- ALTERNATELY, run at constant volume using Langevin dynamics. --
#  -- (This is good for sparse CG polymers in implicit solvent.)   --
# fix fxlan all langevin 300.0 300.0 5000 48279
#  -- Now, finally run the simulation --
# run   50000
#  ---- (end of examples) ----
Total wall time: 0:09:07
