ITEM: TIMESTEP
0
ITEM: NUMBER OF ATOMS
1728
ITEM: BOX BOUNDS pp pp pp
0 56.96
0 21.36
0 21.36
ITEM: ATOMS id type xs ys zs
1 1 0 0 0
2 1 0 0.166667 0.166667
3 1 0.03125 0.0833333 0.0833333
4 1 0.0625 0 0.166667
7 1 0.0625 0.166667 0
9 2 0.015625 0.0416667 0.0416667
11 2 0.046875 0.125 0.0416667
12 2 0.078125 0.0416667 0.208333
13 2 0.015625 0.208333 0.208333
14 2 0.078125 0.208333 0.0416667
16 2 0.046875 0.0416667 0.125
21 2 0.015625 0.125 0.125
10 2 0.109375 0.208333 0.125
18 2 0.109375 0.125 0.208333
217 1 0.125 0 0
218 1 0.125 0.166667 0.166667
219 1 0.15625 0.0833333 0.0833333
225 2 0.140625 0.0416667 0.0416667
227 2 0.171875 0.125 0.0416667
229 2 0.140625 0.208333 0.208333
232 2 0.171875 0.0416667 0.125
237 2 0.140625 0.125 0.125
220 1 0.1875 0 0.166667
223 1 0.1875 0.166667 0
226 2 0.234375 0.208333 0.125
228 2 0.203125 0.0416667 0.208333
230 2 0.203125 0.208333 0.0416667
234 2 0.234375 0.125 0.208333
433 1 0.25 0 0
434 1 0.25 0.166667 0.166667
441 2 0.265625 0.0416667 0.0416667
445 2 0.265625 0.208333 0.208333
453 2 0.265625 0.125 0.125
435 1 0.28125 0.0833333 0.0833333
436 1 0.3125 0 0.166667
439 1 0.3125 0.166667 0
442 2 0.359375 0.208333 0.125
443 2 0.296875 0.125 0.0416667
444 2 0.328125 0.0416667 0.208333
446 2 0.328125 0.208333 0.0416667
448 2 0.296875 0.0416667 0.125
450 2 0.359375 0.125 0.208333
649 1 0.375 0 0
650 1 0.375 0.166667 0.166667
651 1 0.40625 0.0833333 0.0833333
652 1 0.4375 0 0.166667
655 1 0.4375 0.166667 0
657 2 0.390625 0.0416667 0.0416667
659 2 0.421875 0.125 0.0416667
660 2 0.453125 0.0416667 0.208333
661 2 0.390625 0.208333 0.208333
662 2 0.453125 0.208333 0.0416667
664 2 0.421875 0.0416667 0.125
669 2 0.390625 0.125 0.125
658 2 0.484375 0.208333 0.125
666 2 0.484375 0.125 0.208333
865 1 0.5 0 0
866 1 0.5 0.166667 0.166667
867 1 0.53125 0.0833333 0.0833333
873 2 0.515625 0.0416667 0.0416667
877 2 0.515625 0.208333 0.208333
885 2 0.515625 0.125 0.125
868 1 0.5625 0 0.166667
871 1 0.5625 0.166667 0
874 2 0.609375 0.208333 0.125
875 2 0.546875 0.125 0.0416667
876 2 0.578125 0.0416667 0.208333
878 2 0.578125 0.208333 0.0416667
880 2 0.546875 0.0416667 0.125
882 2 0.609375 0.125 0.208333
1081 1 0.625 0 0
1082 1 0.625 0.166667 0.166667
1083 1 0.65625 0.0833333 0.0833333
1084 1 0.6875 0 0.166667
1087 1 0.6875 0.166667 0
1089 2 0.640625 0.0416667 0.0416667
1091 2 0.671875 0.125 0.0416667
1092 2 0.703125 0.0416667 0.208333
1093 2 0.640625 0.208333 0.208333
1094 2 0.703125 0.208333 0.0416667
1096 2 0.671875 0.0416667 0.125
1101 2 0.640625 0.125 0.125
1090 2 0.734375 0.208333 0.125
1098 2 0.734375 0.125 0.208333
1297 1 0.75 0 0
1298 1 0.75 0.166667 0.166667
1299 1 0.78125 0.0833333 0.0833333
1300 1 0.8125 0 0.166667
1303 1 0.8125 0.166667 0
1305 2 0.765625 0.0416667 0.0416667
1307 2 0.796875 0.125 0.0416667
1309 2 0.765625 0.208333 0.208333
1312 2 0.796875 0.0416667 0.125
1317 2 0.765625 0.125 0.125
1306 2 0.859375 0.208333 0.125
1308 2 0.828125 0.0416667 0.208333
1310 2 0.828125 0.208333 0.0416667
1314 2 0.859375 0.125 0.208333
1513 1 0.875 0 0
1514 1 0.875 0.166667 0.166667
1515 1 0.90625 0.0833333 0.0833333
1521 2 0.890625 0.0416667 0.0416667
1525 2 0.890625 0.208333 0.208333
1533 2 0.890625 0.125 0.125
1516 1 0.9375 0 0.166667
1519 1 0.9375 0.166667 0
1522 2 0.984375 0.208333 0.125
1523 2 0.921875 0.125 0.0416667
1524 2 0.953125 0.0416667 0.208333
1526 2 0.953125 0.208333 0.0416667
1528 2 0.921875 0.0416667 0.125
1530 2 0.984375 0.125 0.208333
15 2 0.046875 0.291667 0.208333
22 2 0.078125 0.291667 0.125
73 1 0 0.333333 0
75 1 0.03125 0.416667 0.0833333
76 1 0.0625 0.333333 0.166667
81 2 0.015625 0.375 0.0416667
83 2 0.046875 0.458333 0.0416667
84 2 0.078125 0.375 0.208333
88 2 0.046875 0.375 0.125
93 2 0.015625 0.458333 0.125
6 1 0.09375 0.25 0.0833333
23 2 0.109375 0.291667 0.0416667
90 2 0.109375 0.458333 0.208333
231 2 0.171875 0.291667 0.208333
289 1 0.125 0.333333 0
291 1 0.15625 0.416667 0.0833333
297 2 0.140625 0.375 0.0416667
299 2 0.171875 0.458333 0.0416667
304 2 0.171875 0.375 0.125
309 2 0.140625 0.458333 0.125
222 1 0.21875 0.25 0.0833333
238 2 0.203125 0.291667 0.125
239 2 0.234375 0.291667 0.0416667
292 1 0.1875 0.333333 0.166667
300 2 0.203125 0.375 0.208333
306 2 0.234375 0.458333 0.208333
505 1 0.25 0.333333 0
513 2 0.265625 0.375 0.0416667
525 2 0.265625 0.458333 0.125
438 1 0.34375 0.25 0.0833333
447 2 0.296875 0.291667 0.208333
454 2 0.328125 0.291667 0.125
455 2 0.359375 0.291667 0.0416667
507 1 0.28125 0.416667 0.0833333
508 1 0.3125 0.333333 0.166667
515 2 0.296875 0.458333 0.0416667
516 2 0.328125 0.375 0.208333
520 2 0.296875 0.375 0.125
522 2 0.359375 0.458333 0.208333
663 2 0.421875 0.291667 0.208333
670 2 0.453125 0.291667 0.125
721 1 0.375 0.333333 0
723 1 0.40625 0.416667 0.0833333
724 1 0.4375 0.333333 0.166667
729 2 0.390625 0.375 0.0416667
731 2 0.421875 0.458333 0.0416667
732 2 0.453125 0.375 0.208333
736 2 0.421875 0.375 0.125
741 2 0.390625 0.458333 0.125
654 1 0.46875 0.25 0.0833333
671 2 0.484375 0.291667 0.0416667
738 2 0.484375 0.458333 0.208333
937 1 0.5 0.333333 0
939 1 0.53125 0.416667 0.0833333
945 2 0.515625 0.375 0.0416667
957 2 0.515625 0.458333 0.125
870 1 0.59375 0.25 0.0833333
879 2 0.546875 0.291667 0.208333
886 2 0.578125 0.291667 0.125
887 2 0.609375 0.291667 0.0416667
940 1 0.5625 0.333333 0.166667
947 2 0.546875 0.458333 0.0416667
948 2 0.578125 0.375 0.208333
952 2 0.546875 0.375 0.125
954 2 0.609375 0.458333 0.208333
1153 1 0.625 0.333333 0
1086 1 0.71875 0.25 0.0833333
1095 2 0.671875 0.291667 0.208333
1102 2 0.703125 0.291667 0.125
1155 1 0.65625 0.416667 0.0833333
1156 1 0.6875 0.333333 0.166667
1161 2 0.640625 0.375 0.0416667
1163 2 0.671875 0.458333 0.0416667
1164 2 0.703125 0.375 0.208333
1168 2 0.671875 0.375 0.125
1173 2 0.640625 0.458333 0.125
1103 2 0.734375 0.291667 0.0416667
1170 2 0.734375 0.458333 0.208333
1311 2 0.796875 0.291667 0.208333
1369 1 0.75 0.333333 0
1371 1 0.78125 0.416667 0.0833333
1372 1 0.8125 0.333333 0.166667
1377 2 0.765625 0.375 0.0416667
1379 2 0.796875 0.458333 0.0416667
1384 2 0.796875 0.375 0.125
1389 2 0.765625 0.458333 0.125
1302 1 0.84375 0.25 0.0833333
1318 2 0.828125 0.291667 0.125
1319 2 0.859375 0.291667 0.0416667
1380 2 0.828125 0.375 0.208333
1386 2 0.859375 0.458333 0.208333
1585 1 0.875 0.333333 0
1587 1 0.90625 0.416667 0.0833333
1593 2 0.890625 0.375 0.0416667
1605 2 0.890625 0.458333 0.125
1518 1 0.96875 0.25 0.0833333
1527 2 0.921875 0.291667 0.208333
1534 2 0.953125 0.291667 0.125
1535 2 0.984375 0.291667 0.0416667
1588 1 0.9375 0.333333 0.166667
1595 2 0.921875 0.458333 0.0416667
1596 2 0.953125 0.375 0.208333
1600 2 0.921875 0.375 0.125
1602 2 0.984375 0.458333 0.208333
74 1 0 0.5 0.166667
79 1 0.0625 0.5 0
85 2 0.015625 0.541667 0.208333
86 2 0.078125 0.541667 0.0416667
87 2 0.046875 0.625 0.208333
94 2 0.078125 0.625 0.125
145 1 0 0.666667 0
148 1 0.0625 0.666667 0.166667
153 2 0.015625 0.708333 0.0416667
156 2 0.078125 0.708333 0.208333
160 2 0.046875 0.708333 0.125
78 1 0.09375 0.583333 0.0833333
82 2 0.109375 0.541667 0.125
95 2 0.109375 0.625 0.0416667
290 1 0.125 0.5 0.166667
301 2 0.140625 0.541667 0.208333
303 2 0.171875 0.625 0.208333
361 1 0.125 0.666667 0
369 2 0.140625 0.708333 0.0416667
376 2 0.171875 0.708333 0.125
294 1 0.21875 0.583333 0.0833333
295 1 0.1875 0.5 0
298 2 0.234375 0.541667 0.125
302 2 0.203125 0.541667 0.0416667
310 2 0.203125 0.625 0.125
311 2 0.234375 0.625 0.0416667
364 1 0.1875 0.666667 0.166667
372 2 0.203125 0.708333 0.208333
506 1 0.25 0.5 0.166667
517 2 0.265625 0.541667 0.208333
577 1 0.25 0.666667 0
585 2 0.265625 0.708333 0.0416667
510 1 0.34375 0.583333 0.0833333
511 1 0.3125 0.5 0
514 2 0.359375 0.541667 0.125
518 2 0.328125 0.541667 0.0416667
519 2 0.296875 0.625 0.208333
526 2 0.328125 0.625 0.125
527 2 0.359375 0.625 0.0416667
580 1 0.3125 0.666667 0.166667
588 2 0.328125 0.708333 0.208333
592 2 0.296875 0.708333 0.125
722 1 0.375 0.5 0.166667
727 1 0.4375 0.5 0
733 2 0.390625 0.541667 0.208333
734 2 0.453125 0.541667 0.0416667
735 2 0.421875 0.625 0.208333
742 2 0.453125 0.625 0.125
793 1 0.375 0.666667 0
796 1 0.4375 0.666667 0.166667
801 2 0.390625 0.708333 0.0416667
804 2 0.453125 0.708333 0.208333
808 2 0.421875 0.708333 0.125
726 1 0.46875 0.583333 0.0833333
730 2 0.484375 0.541667 0.125
743 2 0.484375 0.625 0.0416667
938 1 0.5 0.5 0.166667
949 2 0.515625 0.541667 0.208333
1009 1 0.5 0.666667 0
1017 2 0.515625 0.708333 0.0416667
942 1 0.59375 0.583333 0.0833333
943 1 0.5625 0.5 0
946 2 0.609375 0.541667 0.125
950 2 0.578125 0.541667 0.0416667
951 2 0.546875 0.625 0.208333
958 2 0.578125 0.625 0.125
959 2 0.609375 0.625 0.0416667
1012 1 0.5625 0.666667 0.166667
1020 2 0.578125 0.708333 0.208333
1024 2 0.546875 0.708333 0.125
1154 1 0.625 0.5 0.166667
1225 1 0.625 0.666667 0
1158 1 0.71875 0.583333 0.0833333
1159 1 0.6875 0.5 0
1165 2 0.640625 0.541667 0.208333
1166 2 0.703125 0.541667 0.0416667
1167 2 0.671875 0.625 0.208333
1174 2 0.703125 0.625 0.125
1228 1 0.6875 0.666667 0.166667
1233 2 0.640625 0.708333 0.0416667
1236 2 0.703125 0.708333 0.208333
1240 2 0.671875 0.708333 0.125
1162 2 0.734375 0.541667 0.125
1175 2 0.734375 0.625 0.0416667
1370 1 0.75 0.5 0.166667
1375 1 0.8125 0.5 0
1381 2 0.765625 0.541667 0.208333
1383 2 0.796875 0.625 0.208333
1441 1 0.75 0.666667 0
1444 1 0.8125 0.666667 0.166667
1449 2 0.765625 0.708333 0.0416667
1456 2 0.796875 0.708333 0.125
1374 1 0.84375 0.583333 0.0833333
1378 2 0.859375 0.541667 0.125
1382 2 0.828125 0.541667 0.0416667
1390 2 0.828125 0.625 0.125
1391 2 0.859375 0.625 0.0416667
1452 2 0.828125 0.708333 0.208333
1586 1 0.875 0.5 0.166667
1597 2 0.890625 0.541667 0.208333
1657 1 0.875 0.666667 0
1665 2 0.890625 0.708333 0.0416667
1590 1 0.96875 0.583333 0.0833333
1591 1 0.9375 0.5 0
1594 2 0.984375 0.541667 0.125
1598 2 0.953125 0.541667 0.0416667
1599 2 0.921875 0.625 0.208333
1606 2 0.953125 0.625 0.125
1607 2 0.984375 0.625 0.0416667
1660 1 0.9375 0.666667 0.166667
1668 2 0.953125 0.708333 0.208333
1672 2 0.921875 0.708333 0.125
146 1 0 0.833333 0.166667
147 1 0.03125 0.75 0.0833333
151 1 0.0625 0.833333 0
155 2 0.046875 0.791667 0.0416667
157 2 0.015625 0.875 0.208333
158 2 0.078125 0.875 0.0416667
159 2 0.046875 0.958333 0.208333
165 2 0.015625 0.791667 0.125
166 2 0.078125 0.958333 0.125
150 1 0.09375 0.916667 0.0833333
154 2 0.109375 0.875 0.125
162 2 0.109375 0.791667 0.208333
167 2 0.109375 0.958333 0.0416667
362 1 0.125 0.833333 0.166667
363 1 0.15625 0.75 0.0833333
371 2 0.171875 0.791667 0.0416667
373 2 0.140625 0.875 0.208333
375 2 0.171875 0.958333 0.208333
381 2 0.140625 0.791667 0.125
366 1 0.21875 0.916667 0.0833333
367 1 0.1875 0.833333 0
370 2 0.234375 0.875 0.125
374 2 0.203125 0.875 0.0416667
378 2 0.234375 0.791667 0.208333
382 2 0.203125 0.958333 0.125
383 2 0.234375 0.958333 0.0416667
578 1 0.25 0.833333 0.166667
589 2 0.265625 0.875 0.208333
597 2 0.265625 0.791667 0.125
579 1 0.28125 0.75 0.0833333
582 1 0.34375 0.916667 0.0833333
583 1 0.3125 0.833333 0
586 2 0.359375 0.875 0.125
587 2 0.296875 0.791667 0.0416667
590 2 0.328125 0.875 0.0416667
591 2 0.296875 0.958333 0.208333
594 2 0.359375 0.791667 0.208333
598 2 0.328125 0.958333 0.125
599 2 0.359375 0.958333 0.0416667
794 1 0.375 0.833333 0.166667
795 1 0.40625 0.75 0.0833333
799 1 0.4375 0.833333 0
803 2 0.421875 0.791667 0.0416667
805 2 0.390625 0.875 0.208333
806 2 0.453125 0.875 0.0416667
807 2 0.421875 0.958333 0.208333
813 2 0.390625 0.791667 0.125
814 2 0.453125 0.958333 0.125
798 1 0.46875 0.916667 0.0833333
802 2 0.484375 0.875 0.125
810 2 0.484375 0.791667 0.208333
815 2 0.484375 0.958333 0.0416667
1010 1 0.5 0.833333 0.166667
1011 1 0.53125 0.75 0.0833333
1021 2 0.515625 0.875 0.208333
1029 2 0.515625 0.791667 0.125
1014 1 0.59375 0.916667 0.0833333
1015 1 0.5625 0.833333 0
1018 2 0.609375 0.875 0.125
1019 2 0.546875 0.791667 0.0416667
1022 2 0.578125 0.875 0.0416667
1023 2 0.546875 0.958333 0.208333
1026 2 0.609375 0.791667 0.208333
1030 2 0.578125 0.958333 0.125
1031 2 0.609375 0.958333 0.0416667
1226 1 0.625 0.833333 0.166667
1227 1 0.65625 0.75 0.0833333
1230 1 0.71875 0.916667 0.0833333
1231 1 0.6875 0.833333 0
1235 2 0.671875 0.791667 0.0416667
1237 2 0.640625 0.875 0.208333
1238 2 0.703125 0.875 0.0416667
1239 2 0.671875 0.958333 0.208333
1245 2 0.640625 0.791667 0.125
1246 2 0.703125 0.958333 0.125
1234 2 0.734375 0.875 0.125
1242 2 0.734375 0.791667 0.208333
1247 2 0.734375 0.958333 0.0416667
1442 1 0.75 0.833333 0.166667
1443 1 0.78125 0.75 0.0833333
1447 1 0.8125 0.833333 0
1451 2 0.796875 0.791667 0.0416667
1453 2 0.765625 0.875 0.208333
1455 2 0.796875 0.958333 0.208333
1461 2 0.765625 0.791667 0.125
1446 1 0.84375 0.916667 0.0833333
1450 2 0.859375 0.875 0.125
1454 2 0.828125 0.875 0.0416667
1458 2 0.859375 0.791667 0.208333
1462 2 0.828125 0.958333 0.125
1463 2 0.859375 0.958333 0.0416667
1658 1 0.875 0.833333 0.166667
1659 1 0.90625 0.75 0.0833333
1669 2 0.890625 0.875 0.208333
1677 2 0.890625 0.791667 0.125
1662 1 0.96875 0.916667 0.0833333
1663 1 0.9375 0.833333 0
1666 2 0.984375 0.875 0.125
1667 2 0.921875 0.791667 0.0416667
1670 2 0.953125 0.875 0.0416667
1671 2 0.921875 0.958333 0.208333
1674 2 0.984375 0.791667 0.208333
1678 2 0.953125 0.958333 0.125
1679 2 0.984375 0.958333 0.0416667
17 2 0.078125 0.125 0.291667
19 2 0.046875 0.208333 0.291667
25 1 0 0 0.333333
27 1 0.03125 0.0833333 0.416667
31 1 0.0625 0.166667 0.333333
33 2 0.015625 0.0416667 0.375
35 2 0.046875 0.125 0.375
38 2 0.078125 0.208333 0.375
40 2 0.046875 0.0416667 0.458333
45 2 0.015625 0.125 0.458333
8 1 0.09375 0.0833333 0.25
24 2 0.109375 0.0416667 0.291667
34 2 0.109375 0.208333 0.458333
235 2 0.171875 0.208333 0.291667
241 1 0.125 0 0.333333
243 1 0.15625 0.0833333 0.416667
249 2 0.140625 0.0416667 0.375
251 2 0.171875 0.125 0.375
256 2 0.171875 0.0416667 0.458333
261 2 0.140625 0.125 0.458333
224 1 0.21875 0.0833333 0.25
233 2 0.203125 0.125 0.291667
240 2 0.234375 0.0416667 0.291667
247 1 0.1875 0.166667 0.333333
250 2 0.234375 0.208333 0.458333
254 2 0.203125 0.208333 0.375
457 1 0.25 0 0.333333
465 2 0.265625 0.0416667 0.375
477 2 0.265625 0.125 0.458333
440 1 0.34375 0.0833333 0.25
449 2 0.328125 0.125 0.291667
451 2 0.296875 0.208333 0.291667
456 2 0.359375 0.0416667 0.291667
459 1 0.28125 0.0833333 0.416667
463 1 0.3125 0.166667 0.333333
466 2 0.359375 0.208333 0.458333
467 2 0.296875 0.125 0.375
470 2 0.328125 0.208333 0.375
472 2 0.296875 0.0416667 0.458333
665 2 0.453125 0.125 0.291667
667 2 0.421875 0.208333 0.291667
673 1 0.375 0 0.333333
675 1 0.40625 0.0833333 0.416667
679 1 0.4375 0.166667 0.333333
681 2 0.390625 0.0416667 0.375
683 2 0.421875 0.125 0.375
686 2 0.453125 0.208333 0.375
688 2 0.421875 0.0416667 0.458333
693 2 0.390625 0.125 0.458333
656 1 0.46875 0.0833333 0.25
672 2 0.484375 0.0416667 0.291667
682 2 0.484375 0.208333 0.458333
889 1 0.5 0 0.333333
891 1 0.53125 0.0833333 0.416667
897 2 0.515625 0.0416667 0.375
909 2 0.515625 0.125 0.458333
872 1 0.59375 0.0833333 0.25
881 2 0.578125 0.125 0.291667
883 2 0.546875 0.208333 0.291667
888 2 0.609375 0.0416667 0.291667
895 1 0.5625 0.166667 0.333333
898 2 0.609375 0.208333 0.458333
899 2 0.546875 0.125 0.375
902 2 0.578125 0.208333 0.375
904 2 0.546875 0.0416667 0.458333
1105 1 0.625 0 0.333333
1088 1 0.71875 0.0833333 0.25
1097 2 0.703125 0.125 0.291667
1099 2 0.671875 0.208333 0.291667
1107 1 0.65625 0.0833333 0.416667
1111 1 0.6875 0.166667 0.333333
1113 2 0.640625 0.0416667 0.375
1115 2 0.671875 0.125 0.375
1118 2 0.703125 0.208333 0.375
1120 2 0.671875 0.0416667 0.458333
1125 2 0.640625 0.125 0.458333
1104 2 0.734375 0.0416667 0.291667
1114 2 0.734375 0.208333 0.458333
1315 2 0.796875 0.208333 0.291667
1321 1 0.75 0 0.333333
1323 1 0.78125 0.0833333 0.416667
1327 1 0.8125 0.166667 0.333333
1329 2 0.765625 0.0416667 0.375
1331 2 0.796875 0.125 0.375
1336 2 0.796875 0.0416667 0.458333
1341 2 0.765625 0.125 0.458333
1304 1 0.84375 0.0833333 0.25
1313 2 0.828125 0.125 0.291667
1320 2 0.859375 0.0416667 0.291667
1330 2 0.859375 0.208333 0.458333
1334 2 0.828125 0.208333 0.375
1537 1 0.875 0 0.333333
1539 1 0.90625 0.0833333 0.416667
1545 2 0.890625 0.0416667 0.375
1557 2 0.890625 0.125 0.458333
1520 1 0.96875 0.0833333 0.25
1529 2 0.953125 0.125 0.291667
1531 2 0.921875 0.208333 0.291667
1536 2 0.984375 0.0416667 0.291667
1543 1 0.9375 0.166667 0.333333
1546 2 0.984375 0.208333 0.458333
1547 2 0.921875 0.125 0.375
1550 2 0.953125 0.208333 0.375
1552 2 0.921875 0.0416667 0.458333
5 1 0.03125 0.25 0.25
20 2 0.015625 0.291667 0.291667
46 2 0.078125 0.291667 0.458333
89 2 0.078125 0.458333 0.291667
97 1 0 0.333333 0.333333
99 1 0.03125 0.416667 0.416667
105 2 0.015625 0.375 0.375
107 2 0.046875 0.458333 0.375
112 2 0.046875 0.375 0.458333
117 2 0.015625 0.458333 0.458333
30 1 0.09375 0.25 0.416667
47 2 0.109375 0.291667 0.375
80 1 0.09375 0.416667 0.25
96 2 0.109375 0.375 0.291667
221 1 0.15625 0.25 0.25
236 2 0.140625 0.291667 0.291667
313 1 0.125 0.333333 0.333333
315 1 0.15625 0.416667 0.416667
321 2 0.140625 0.375 0.375
323 2 0.171875 0.458333 0.375
328 2 0.171875 0.375 0.458333
333 2 0.140625 0.458333 0.458333
246 1 0.21875 0.25 0.416667
262 2 0.203125 0.291667 0.458333
263 2 0.234375 0.291667 0.375
296 1 0.21875 0.416667 0.25
305 2 0.203125 0.458333 0.291667
312 2 0.234375 0.375 0.291667
452 2 0.265625 0.291667 0.291667
529 1 0.25 0.333333 0.333333
537 2 0.265625 0.375 0.375
549 2 0.265625 0.458333 0.458333
437 1 0.28125 0.25 0.25
462 1 0.34375 0.25 0.416667
478 2 0.328125 0.291667 0.458333
479 2 0.359375 0.291667 0.375
512 1 0.34375 0.416667 0.25
521 2 0.328125 0.458333 0.291667
528 2 0.359375 0.375 0.291667
531 1 0.28125 0.416667 0.416667
539 2 0.296875 0.458333 0.375
544 2 0.296875 0.375 0.458333
653 1 0.40625 0.25 0.25
668 2 0.390625 0.291667 0.291667
694 2 0.453125 0.291667 0.458333
737 2 0.453125 0.458333 0.291667
745 1 0.375 0.333333 0.333333
747 1 0.40625 0.416667 0.416667
753 2 0.390625 0.375 0.375
755 2 0.421875 0.458333 0.375
760 2 0.421875 0.375 0.458333
765 2 0.390625 0.458333 0.458333
678 1 0.46875 0.25 0.416667
695 2 0.484375 0.291667 0.375
728 1 0.46875 0.416667 0.25
744 2 0.484375 0.375 0.291667
869 1 0.53125 0.25 0.25
884 2 0.515625 0.291667 0.291667
961 1 0.5 0.333333 0.333333
963 1 0.53125 0.416667 0.416667
969 2 0.515625 0.375 0.375
981 2 0.515625 0.458333 0.458333
894 1 0.59375 0.25 0.416667
910 2 0.578125 0.291667 0.458333
911 2 0.609375 0.291667 0.375
944 1 0.59375 0.416667 0.25
953 2 0.578125 0.458333 0.291667
960 2 0.609375 0.375 0.291667
971 2 0.546875 0.458333 0.375
976 2 0.546875 0.375 0.458333
1177 1 0.625 0.333333 0.333333
1085 1 0.65625 0.25 0.25
1100 2 0.640625 0.291667 0.291667
1110 1 0.71875 0.25 0.416667
1126 2 0.703125 0.291667 0.458333
1160 1 0.71875 0.416667 0.25
1169 2 0.703125 0.458333 0.291667
1179 1 0.65625 0.416667 0.416667
1185 2 0.640625 0.375 0.375
1187 2 0.671875 0.458333 0.375
1192 2 0.671875 0.375 0.458333
1197 2 0.640625 0.458333 0.458333
1127 2 0.734375 0.291667 0.375
1176 2 0.734375 0.375 0.291667
1301 1 0.78125 0.25 0.25
1316 2 0.765625 0.291667 0.291667
1393 1 0.75 0.333333 0.333333
1395 1 0.78125 0.416667 0.416667
1401 2 0.765625 0.375 0.375
1403 2 0.796875 0.458333 0.375
1408 2 0.796875 0.375 0.458333
1413 2 0.765625 0.458333 0.458333
1326 1 0.84375 0.25 0.416667
1342 2 0.828125 0.291667 0.458333
1343 2 0.859375 0.291667 0.375
1376 1 0.84375 0.416667 0.25
1385 2 0.828125 0.458333 0.291667
1392 2 0.859375 0.375 0.291667
1517 1 0.90625 0.25 0.25
1532 2 0.890625 0.291667 0.291667
1609 1 0.875 0.333333 0.333333
1611 1 0.90625 0.416667 0.416667
1617 2 0.890625 0.375 0.375
1629 2 0.890625 0.458333 0.458333
1542 1 0.96875 0.25 0.416667
1558 2 0.953125 0.291667 0.458333
1559 2 0.984375 0.291667 0.375
1592 1 0.96875 0.416667 0.25
1601 2 0.953125 0.458333 0.291667
1608 2 0.984375 0.375 0.291667
1619 2 0.921875 0.458333 0.375
1624 2 0.921875 0.375 0.458333
77 1 0.03125 0.583333 0.25
91 2 0.046875 0.541667 0.291667
92 2 0.015625 0.625 0.291667
103 1 0.0625 0.5 0.333333
110 2 0.078125 0.541667 0.375
118 2 0.078125 0.625 0.458333
169 1 0 0.666667 0.333333
177 2 0.015625 0.708333 0.375
184 2 0.046875 0.708333 0.458333
102 1 0.09375 0.583333 0.416667
106 2 0.109375 0.541667 0.458333
119 2 0.109375 0.625 0.375
168 2 0.109375 0.708333 0.291667
293 1 0.15625 0.583333 0.25
307 2 0.171875 0.541667 0.291667
308 2 0.140625 0.625 0.291667
385 1 0.125 0.666667 0.333333
393 2 0.140625 0.708333 0.375
400 2 0.171875 0.708333 0.458333
318 1 0.21875 0.583333 0.416667
319 1 0.1875 0.5 0.333333
322 2 0.234375 0.541667 0.458333
326 2 0.203125 0.541667 0.375
334 2 0.203125 0.625 0.458333
335 2 0.234375 0.625 0.375
384 2 0.234375 0.708333 0.291667
524 2 0.265625 0.625 0.291667
601 1 0.25 0.666667 0.333333
609 2 0.265625 0.708333 0.375
509 1 0.28125 0.583333 0.25
523 2 0.296875 0.541667 0.291667
534 1 0.34375 0.583333 0.416667
535 1 0.3125 0.5 0.333333
538 2 0.359375 0.541667 0.458333
542 2 0.328125 0.541667 0.375
550 2 0.328125 0.625 0.458333
551 2 0.359375 0.625 0.375
600 2 0.359375 0.708333 0.291667
616 2 0.296875 0.708333 0.458333
725 1 0.40625 0.583333 0.25
739 2 0.421875 0.541667 0.291667
740 2 0.390625 0.625 0.291667
751 1 0.4375 0.5 0.333333
758 2 0.453125 0.541667 0.375
766 2 0.453125 0.625 0.458333
817 1 0.375 0.666667 0.333333
825 2 0.390625 0.708333 0.375
832 2 0.421875 0.708333 0.458333
750 1 0.46875 0.583333 0.416667
754 2 0.484375 0.541667 0.458333
767 2 0.484375 0.625 0.375
816 2 0.484375 0.708333 0.291667
941 1 0.53125 0.583333 0.25
956 2 0.515625 0.625 0.291667
1033 1 0.5 0.666667 0.333333
1041 2 0.515625 0.708333 0.375
955 2 0.546875 0.541667 0.291667
966 1 0.59375 0.583333 0.416667
967 1 0.5625 0.5 0.333333
970 2 0.609375 0.541667 0.458333
974 2 0.578125 0.541667 0.375
982 2 0.578125 0.625 0.458333
983 2 0.609375 0.625 0.375
1032 2 0.609375 0.708333 0.291667
1048 2 0.546875 0.708333 0.458333
1249 1 0.625 0.666667 0.333333
1157 1 0.65625 0.583333 0.25
1171 2 0.671875 0.541667 0.291667
1172 2 0.640625 0.625 0.291667
1182 1 0.71875 0.583333 0.416667
1183 1 0.6875 0.5 0.333333
1190 2 0.703125 0.541667 0.375
1198 2 0.703125 0.625 0.458333
1257 2 0.640625 0.708333 0.375
1264 2 0.671875 0.708333 0.458333
1186 2 0.734375 0.541667 0.458333
1199 2 0.734375 0.625 0.375
1248 2 0.734375 0.708333 0.291667
1373 1 0.78125 0.583333 0.25
1387 2 0.796875 0.541667 0.291667
1388 2 0.765625 0.625 0.291667
1399 1 0.8125 0.5 0.333333
1465 1 0.75 0.666667 0.333333
1473 2 0.765625 0.708333 0.375
1480 2 0.796875 0.708333 0.458333
1398 1 0.84375 0.583333 0.416667
1402 2 0.859375 0.541667 0.458333
1406 2 0.828125 0.541667 0.375
1414 2 0.828125 0.625 0.458333
1415 2 0.859375 0.625 0.375
1464 2 0.859375 0.708333 0.291667
1589 1 0.90625 0.583333 0.25
1604 2 0.890625 0.625 0.291667
1681 1 0.875 0.666667 0.333333
1689 2 0.890625 0.708333 0.375
1603 2 0.921875 0.541667 0.291667
1614 1 0.96875 0.583333 0.416667
1615 1 0.9375 0.5 0.333333
1618 2 0.984375 0.541667 0.458333
1622 2 0.953125 0.541667 0.375
1630 2 0.953125 0.625 0.458333
1631 2 0.984375 0.625 0.375
1680 2 0.984375 0.708333 0.291667
1696 2 0.921875 0.708333 0.458333
149 1 0.03125 0.916667 0.25
161 2 0.078125 0.791667 0.291667
163 2 0.046875 0.875 0.291667
164 2 0.015625 0.958333 0.291667
171 1 0.03125 0.75 0.416667
175 1 0.0625 0.833333 0.333333
179 2 0.046875 0.791667 0.375
182 2 0.078125 0.875 0.375
189 2 0.015625 0.791667 0.458333
190 2 0.078125 0.958333 0.458333
152 1 0.09375 0.75 0.25
174 1 0.09375 0.916667 0.416667
178 2 0.109375 0.875 0.458333
191 2 0.109375 0.958333 0.375
365 1 0.15625 0.916667 0.25
379 2 0.171875 0.875 0.291667
380 2 0.140625 0.958333 0.291667
387 1 0.15625 0.75 0.416667
395 2 0.171875 0.791667 0.375
405 2 0.140625 0.791667 0.458333
368 1 0.21875 0.75 0.25
377 2 0.203125 0.791667 0.291667
390 1 0.21875 0.916667 0.416667
391 1 0.1875 0.833333 0.333333
394 2 0.234375 0.875 0.458333
398 2 0.203125 0.875 0.375
406 2 0.203125 0.958333 0.458333
407 2 0.234375 0.958333 0.375
596 2 0.265625 0.958333 0.291667
621 2 0.265625 0.791667 0.458333
581 1 0.28125 0.916667 0.25
584 1 0.34375 0.75 0.25
593 2 0.328125 0.791667 0.291667
595 2 0.296875 0.875 0.291667
603 1 0.28125 0.75 0.416667
606 1 0.34375 0.916667 0.416667
607 1 0.3125 0.833333 0.333333
610 2 0.359375 0.875 0.458333
611 2 0.296875 0.791667 0.375
614 2 0.328125 0.875 0.375
622 2 0.328125 0.958333 0.458333
623 2 0.359375 0.958333 0.375
797 1 0.40625 0.916667 0.25
809 2 0.453125 0.791667 0.291667
811 2 0.421875 0.875 0.291667
812 2 0.390625 0.958333 0.291667
819 1 0.40625 0.75 0.416667
823 1 0.4375 0.833333 0.333333
827 2 0.421875 0.791667 0.375
830 2 0.453125 0.875 0.375
837 2 0.390625 0.791667 0.458333
838 2 0.453125 0.958333 0.458333
800 1 0.46875 0.75 0.25
822 1 0.46875 0.916667 0.416667
826 2 0.484375 0.875 0.458333
839 2 0.484375 0.958333 0.375
1013 1 0.53125 0.916667 0.25
1028 2 0.515625 0.958333 0.291667
1035 1 0.53125 0.75 0.416667
1053 2 0.515625 0.791667 0.458333
1016 1 0.59375 0.75 0.25
1025 2 0.578125 0.791667 0.291667
1027 2 0.546875 0.875 0.291667
1038 1 0.59375 0.916667 0.416667
1039 1 0.5625 0.833333 0.333333
1042 2 0.609375 0.875 0.458333
1043 2 0.546875 0.791667 0.375
1046 2 0.578125 0.875 0.375
1054 2 0.578125 0.958333 0.458333
1055 2 0.609375 0.958333 0.375
1229 1 0.65625 0.916667 0.25
1232 1 0.71875 0.75 0.25
1241 2 0.703125 0.791667 0.291667
1243 2 0.671875 0.875 0.291667
1244 2 0.640625 0.958333 0.291667
1251 1 0.65625 0.75 0.416667
1254 1 0.71875 0.916667 0.416667
1255 1 0.6875 0.833333 0.333333
1259 2 0.671875 0.791667 0.375
1262 2 0.703125 0.875 0.375
1269 2 0.640625 0.791667 0.458333
1270 2 0.703125 0.958333 0.458333
1258 2 0.734375 0.875 0.458333
1271 2 0.734375 0.958333 0.375
1445 1 0.78125 0.916667 0.25
1459 2 0.796875 0.875 0.291667
1460 2 0.765625 0.958333 0.291667
1467 1 0.78125 0.75 0.416667
1471 1 0.8125 0.833333 0.333333
1475 2 0.796875 0.791667 0.375
1485 2 0.765625 0.791667 0.458333
1448 1 0.84375 0.75 0.25
1457 2 0.828125 0.791667 0.291667
1470 1 0.84375 0.916667 0.416667
1474 2 0.859375 0.875 0.458333
1478 2 0.828125 0.875 0.375
1486 2 0.828125 0.958333 0.458333
1487 2 0.859375 0.958333 0.375
1661 1 0.90625 0.916667 0.25
1676 2 0.890625 0.958333 0.291667
1683 1 0.90625 0.75 0.416667
1701 2 0.890625 0.791667 0.458333
1664 1 0.96875 0.75 0.25
1673 2 0.953125 0.791667 0.291667
1675 2 0.921875 0.875 0.291667
1686 1 0.96875 0.916667 0.416667
1687 1 0.9375 0.833333 0.333333
1690 2 0.984375 0.875 0.458333
1691 2 0.921875 0.791667 0.375
1694 2 0.953125 0.875 0.375
1702 2 0.953125 0.958333 0.458333
1703 2 0.984375 0.958333 0.375
26 1 0 0.166667 0.5
28 1 0.0625 0 0.5
36 2 0.078125 0.0416667 0.541667
37 2 0.015625 0.208333 0.541667
41 2 0.078125 0.125 0.625
43 2 0.046875 0.208333 0.625
49 1 0 0 0.666667
55 1 0.0625 0.166667 0.666667
57 2 0.015625 0.0416667 0.708333
59 2 0.046875 0.125 0.708333
62 2 0.078125 0.208333 0.708333
32 1 0.09375 0.0833333 0.583333
42 2 0.109375 0.125 0.541667
48 2 0.109375 0.0416667 0.625
242 1 0.125 0.166667 0.5
253 2 0.140625 0.208333 0.541667
259 2 0.171875 0.208333 0.625
265 1 0.125 0 0.666667
273 2 0.140625 0.0416667 0.708333
275 2 0.171875 0.125 0.708333
244 1 0.1875 0 0.5
248 1 0.21875 0.0833333 0.583333
252 2 0.203125 0.0416667 0.541667
257 2 0.203125 0.125 0.625
258 2 0.234375 0.125 0.541667
264 2 0.234375 0.0416667 0.625
271 1 0.1875 0.166667 0.666667
278 2 0.203125 0.208333 0.708333
458 1 0.25 0.166667 0.5
469 2 0.265625 0.208333 0.541667
481 1 0.25 0 0.666667
489 2 0.265625 0.0416667 0.708333
460 1 0.3125 0 0.5
464 1 0.34375 0.0833333 0.583333
468 2 0.328125 0.0416667 0.541667
473 2 0.328125 0.125 0.625
474 2 0.359375 0.125 0.541667
475 2 0.296875 0.208333 0.625
480 2 0.359375 0.0416667 0.625
487 1 0.3125 0.166667 0.666667
491 2 0.296875 0.125 0.708333
494 2 0.328125 0.208333 0.708333
674 1 0.375 0.166667 0.5
676 1 0.4375 0 0.5
684 2 0.453125 0.0416667 0.541667
685 2 0.390625 0.208333 0.541667
689 2 0.453125 0.125 0.625
691 2 0.421875 0.208333 0.625
697 1 0.375 0 0.666667
703 1 0.4375 0.166667 0.666667
705 2 0.390625 0.0416667 0.708333
707 2 0.421875 0.125 0.708333
710 2 0.453125 0.208333 0.708333
680 1 0.46875 0.0833333 0.583333
690 2 0.484375 0.125 0.541667
696 2 0.484375 0.0416667 0.625
890 1 0.5 0.166667 0.5
901 2 0.515625 0.208333 0.541667
913 1 0.5 0 0.666667
921 2 0.515625 0.0416667 0.708333
892 1 0.5625 0 0.5
896 1 0.59375 0.0833333 0.583333
900 2 0.578125 0.0416667 0.541667
905 2 0.578125 0.125 0.625
906 2 0.609375 0.125 0.541667
907 2 0.546875 0.208333 0.625
912 2 0.609375 0.0416667 0.625
919 1 0.5625 0.166667 0.666667
923 2 0.546875 0.125 0.708333
926 2 0.578125 0.208333 0.708333
1106 1 0.625 0.166667 0.5
1129 1 0.625 0 0.666667
1108 1 0.6875 0 0.5
1112 1 0.71875 0.0833333 0.583333
1116 2 0.703125 0.0416667 0.541667
1117 2 0.640625 0.208333 0.541667
1121 2 0.703125 0.125 0.625
1123 2 0.671875 0.208333 0.625
1135 1 0.6875 0.166667 0.666667
1137 2 0.640625 0.0416667 0.708333
1139 2 0.671875 0.125 0.708333
1142 2 0.703125 0.208333 0.708333
1122 2 0.734375 0.125 0.541667
1128 2 0.734375 0.0416667 0.625
1322 1 0.75 0.166667 0.5
1324 1 0.8125 0 0.5
1333 2 0.765625 0.208333 0.541667
1339 2 0.796875 0.208333 0.625
1345 1 0.75 0 0.666667
1351 1 0.8125 0.166667 0.666667
1353 2 0.765625 0.0416667 0.708333
1355 2 0.796875 0.125 0.708333
1328 1 0.84375 0.0833333 0.583333
1332 2 0.828125 0.0416667 0.541667
1337 2 0.828125 0.125 0.625
1338 2 0.859375 0.125 0.541667
1344 2 0.859375 0.0416667 0.625
1358 2 0.828125 0.208333 0.708333
1538 1 0.875 0.166667 0.5
1549 2 0.890625 0.208333 0.541667
1561 1 0.875 0 0.666667
1569 2 0.890625 0.0416667 0.708333
1540 1 0.9375 0 0.5
1544 1 0.96875 0.0833333 0.583333
1548 2 0.953125 0.0416667 0.541667
1553 2 0.953125 0.125 0.625
1554 2 0.984375 0.125 0.541667
1555 2 0.921875 0.208333 0.625
1560 2 0.984375 0.0416667 0.625
1567 1 0.9375 0.166667 0.666667
1571 2 0.921875 0.125 0.708333
1574 2 0.953125 0.208333 0.708333
29 1 0.03125 0.25 0.583333
39 2 0.046875 0.291667 0.541667
44 2 0.015625 0.291667 0.625
100 1 0.0625 0.333333 0.5
108 2 0.078125 0.375 0.541667
113 2 0.078125 0.458333 0.625
121 1 0 0.333333 0.666667
129 2 0.015625 0.375 0.708333
131 2 0.046875 0.458333 0.708333