LAMMPS Description

     5184  atoms
     0  bonds
     0  angles
     0  dihedrals
     0  impropers

     2  atom types

  0.0 42.72 xlo xhi
  0.0 42.72 ylo yhi
  0.0 42.72 zlo zhi

Masses

    1 28.0855
    2  15.9994

Atoms # atomic

1 1 0.0 0.0 0.0
2 1 0.0 3.56 3.56
3 1 1.78 1.78 1.78
4 1 3.56 0.0 3.56
5 1 1.78 5.34 5.34
6 1 5.34 5.34 1.78
7 1 3.56 3.56 0.0
8 1 5.34 1.78 5.34
9 2 0.89 0.89 0.89
10 2 6.23 4.45 2.67
11 2 2.67 2.67 0.89
12 2 4.45 0.89 4.45
13 2 0.89 4.45 4.45
14 2 4.45 4.45 0.89
15 2 2.67 6.23 4.45
16 2 2.67 0.89 2.67
17 2 4.45 2.67 6.23
18 2 6.23 2.67 4.45
19 2 2.67 4.45 6.23
20 2 0.89 6.23 6.23
21 2 0.89 2.67 2.67
22 2 4.45 6.23 2.67
23 2 6.23 6.23 0.89
24 2 6.23 0.89 6.23
25 1 0.0 0.0 7.12
26 1 0.0 3.56 10.68
27 1 1.78 1.78 8.9
28 1 3.56 0.0 10.68
29 1 1.78 5.34 12.46
30 1 5.34 5.34 8.9
31 1 3.56 3.56 7.12
32 1 5.34 1.78 12.46
33 2 0.89 0.89 8.01
34 2 6.23 4.45 9.79
35 2 2.67 2.67 8.01
36 2 4.45 0.89 11.57
37 2 0.89 4.45 11.57
38 2 4.45 4.45 8.01
39 2 2.67 6.23 11.57
40 2 2.67 0.89 9.79
41 2 4.45 2.67 13.35
42 2 6.23 2.67 11.57
43 2 2.67 4.45 13.35
44 2 0.89 6.23 13.35
45 2 0.89 2.67 9.79
46 2 4.45 6.23 9.79
47 2 6.23 6.23 8.01
48 2 6.23 0.89 13.35
49 1 0.0 0.0 14.24
50 1 0.0 3.56 17.8
51 1 1.78 1.78 16.02
52 1 3.56 0.0 17.8
53 1 1.78 5.34 19.58
54 1 5.34 5.34 16.02
55 1 3.56 3.56 14.24
56 1 5.34 1.78 19.58
57 2 0.89 0.89 15.13
58 2 6.23 4.45 16.91
59 2 2.67 2.67 15.13
60 2 4.45 0.89 18.69
61 2 0.89 4.45 18.69
62 2 4.45 4.45 15.13
63 2 2.67 6.23 18.69
64 2 2.67 0.89 16.91
65 2 4.45 2.67 20.47
66 2 6.23 2.67 18.69
67 2 2.67 4.45 20.47
68 2 0.89 6.23 20.47
69 2 0.89 2.67 16.91
70 2 4.45 6.23 16.91
71 2 6.23 6.23 15.13
72 2 6.23 0.89 20.47
73 1 0.0 0.0 21.36
74 1 0.0 3.56 24.92
75 1 1.78 1.78 23.14
76 1 3.56 0.0 24.92
77 1 1.78 5.34 26.7
78 1 5.34 5.34 23.14
79 1 3.56 3.56 21.36
80 1 5.34 1.78 26.7
81 2 0.89 0.89 22.25
82 2 6.23 4.45 24.03
83 2 2.67 2.67 22.25
84 2 4.45 0.89 25.81
85 2 0.89 4.45 25.81
86 2 4.45 4.45 22.25
87 2 2.67 6.23 25.81
88 2 2.67 0.89 24.03
89 2 4.45 2.67 27.59
90 2 6.23 2.67 25.81
91 2 2.67 4.45 27.59
92 2 0.89 6.23 27.59
93 2 0.89 2.67 24.03
94 2 4.45 6.23 24.03
95 2 6.23 6.23 22.25
96 2 6.23 0.89 27.59
97 1 0.0 0.0 28.48
98 1 0.0 3.56 32.04
99 1 1.78 1.78 30.26
100 1 3.56 0.0 32.04
101 1 1.78 5.34 33.82
102 1 5.34 5.34 30.26
103 1 3.56 3.56 28.48
104 1 5.34 1.78 33.82
105 2 0.89 0.89 29.37
106 2 6.23 4.45 31.15
107 2 2.67 2.67 29.37
108 2 4.45 0.89 32.93
109 2 0.89 4.45 32.93
110 2 4.45 4.45 29.37
111 2 2.67 6.23 32.93
112 2 2.67 0.89 31.15
113 2 4.45 2.67 34.71
114 2 6.23 2.67 32.93
115 2 2.67 4.45 34.71
116 2 0.89 6.23 34.71
117 2 0.89 2.67 31.15
118 2 4.45 6.23 31.15
119 2 6.23 6.23 29.37
120 2 6.23 0.89 34.71
121 1 0.0 0.0 35.6
122 1 0.0 3.56 39.16
123 1 1.78 1.78 37.38
124 1 3.56 0.0 39.16
125 1 1.78 5.34 40.94
126 1 5.34 5.34 37.38
127 1 3.56 3.56 35.6
128 1 5.34 1.78 40.94
129 2 0.89 0.89 36.49
130 2 6.23 4.45 38.27
131 2 2.67 2.67 36.49
132 2 4.45 0.89 40.05
133 2 0.89 4.45 40.05
134 2 4.45 4.45 36.49
135 2 2.67 6.23 40.05
136 2 2.67 0.89 38.27
137 2 4.45 2.67 41.83
138 2 6.23 2.67 40.05
139 2 2.67 4.45 41.83
140 2 0.89 6.23 41.83
141 2 0.89 2.67 38.27
142 2 4.45 6.23 38.27
143 2 6.23 6.23 36.49
144 2 6.23 0.89 41.83
145 1 0.0 7.12 0.0
146 1 0.0 10.68 3.56
147 1 1.78 8.9 1.78
148 1 3.56 7.12 3.56
149 1 1.78 12.46 5.34
150 1 5.34 12.46 1.78
151 1 3.56 10.68 0.0
152 1 5.34 8.9 5.34
153 2 0.89 8.01 0.89
154 2 6.23 11.57 2.67
155 2 2.67 9.79 0.89
156 2 4.45 8.01 4.45
157 2 0.89 11.57 4.45
158 2 4.45 11.57 0.89
159 2 2.67 13.35 4.45
160 2 2.67 8.01 2.67
161 2 4.45 9.79 6.23
162 2 6.23 9.79 4.45
163 2 2.67 11.57 6.23
164 2 0.89 13.35 6.23
165 2 0.89 9.79 2.67
166 2 4.45 13.35 2.67
167 2 6.23 13.35 0.89
168 2 6.23 8.01 6.23
169 1 0.0 7.12 7.12
170 1 0.0 10.68 10.68
171 1 1.78 8.9 8.9
172 1 3.56 7.12 10.68
173 1 1.78 12.46 12.46
174 1 5.34 12.46 8.9
175 1 3.56 10.68 7.12
176 1 5.34 8.9 12.46
177 2 0.89 8.01 8.01
178 2 6.23 11.57 9.79
179 2 2.67 9.79 8.01
180 2 4.45 8.01 11.57
181 2 0.89 11.57 11.57
182 2 4.45 11.57 8.01
183 2 2.67 13.35 11.57
184 2 2.67 8.01 9.79
185 2 4.45 9.79 13.35
186 2 6.23 9.79 11.57
187 2 2.67 11.57 13.35
188 2 0.89 13.35 13.35
189 2 0.89 9.79 9.79
190 2 4.45 13.35 9.79
191 2 6.23 13.35 8.01
192 2 6.23 8.01 13.35
193 1 0.0 7.12 14.24
194 1 0.0 10.68 17.8
195 1 1.78 8.9 16.02
196 1 3.56 7.12 17.8
197 1 1.78 12.46 19.58
198 1 5.34 12.46 16.02
199 1 3.56 10.68 14.24
200 1 5.34 8.9 19.58
201 2 0.89 8.01 15.13
202 2 6.23 11.57 16.91
203 2 2.67 9.79 15.13
204 2 4.45 8.01 18.69
205 2 0.89 11.57 18.69
206 2 4.45 11.57 15.13
207 2 2.67 13.35 18.69
208 2 2.67 8.01 16.91
209 2 4.45 9.79 20.47
210 2 6.23 9.79 18.69
211 2 2.67 11.57 20.47
212 2 0.89 13.35 20.47
213 2 0.89 9.79 16.91
214 2 4.45 13.35 16.91
215 2 6.23 13.35 15.13
216 2 6.23 8.01 20.47
217 1 0.0 7.12 21.36
218 1 0.0 10.68 24.92
219 1 1.78 8.9 23.14
220 1 3.56 7.12 24.92
221 1 1.78 12.46 26.7
222 1 5.34 12.46 23.14
223 1 3.56 10.68 21.36
224 1 5.34 8.9 26.7
225 2 0.89 8.01 22.25
226 2 6.23 11.57 24.03
227 2 2.67 9.79 22.25
228 2 4.45 8.01 25.81
229 2 0.89 11.57 25.81
230 2 4.45 11.57 22.25
231 2 2.67 13.35 25.81
232 2 2.67 8.01 24.03
233 2 4.45 9.79 27.59
234 2 6.23 9.79 25.81
235 2 2.67 11.57 27.59
236 2 0.89 13.35 27.59
237 2 0.89 9.79 24.03
238 2 4.45 13.35 24.03
239 2 6.23 13.35 22.25
240 2 6.23 8.01 27.59
241 1 0.0 7.12 28.48
242 1 0.0 10.68 32.04
243 1 1.78 8.9 30.26
244 1 3.56 7.12 32.04
245 1 1.78 12.46 33.82
246 1 5.34 12.46 30.26
247 1 3.56 10.68 28.48
248 1 5.34 8.9 33.82
249 2 0.89 8.01 29.37
250 2 6.23 11.57 31.15
251 2 2.67 9.79 29.37
252 2 4.45 8.01 32.93
253 2 0.89 11.57 32.93
254 2 4.45 11.57 29.37
255 2 2.67 13.35 32.93
256 2 2.67 8.01 31.15
257 2 4.45 9.79 34.71
258 2 6.23 9.79 32.93
259 2 2.67 11.57 34.71
260 2 0.89 13.35 34.71
261 2 0.89 9.79 31.15
262 2 4.45 13.35 31.15
263 2 6.23 13.35 29.37
264 2 6.23 8.01 34.71
265 1 0.0 7.12 35.6
266 1 0.0 10.68 39.16
267 1 1.78 8.9 37.38
268 1 3.56 7.12 39.16
269 1 1.78 12.46 40.94
270 1 5.34 12.46 37.38
271 1 3.56 10.68 35.6
272 1 5.34 8.9 40.94
273 2 0.89 8.01 36.49
274 2 6.23 11.57 38.27
275 2 2.67 9.79 36.49
276 2 4.45 8.01 40.05
277 2 0.89 11.57 40.05
278 2 4.45 11.57 36.49
279 2 2.67 13.35 40.05
280 2 2.67 8.01 38.27
281 2 4.45 9.79 41.83
282 2 6.23 9.79 40.05
283 2 2.67 11.57 41.83
284 2 0.89 13.35 41.83
285 2 0.89 9.79 38.27
286 2 4.45 13.35 38.27
287 2 6.23 13.35 36.49
288 2 6.23 8.01 41.83
289 1 0.0 14.24 0.0
290 1 0.0 17.8 3.56
291 1 1.78 16.02 1.78
292 1 3.56 14.24 3.56
293 1 1.78 19.58 5.34
294 1 5.34 19.58 1.78
295 1 3.56 17.8 0.0
296 1 5.34 16.02 5.34
297 2 0.89 15.13 0.89
298 2 6.23 18.69 2.67
299 2 2.67 16.91 0.89
300 2 4.45 15.13 4.45
301 2 0.89 18.69 4.45
302 2 4.45 18.69 0.89
303 2 2.67 20.47 4.45
304 2 2.67 15.13 2.67
305 2 4.45 16.91 6.23
306 2 6.23 16.91 4.45
307 2 2.67 18.69 6.23
308 2 0.89 20.47 6.23
309 2 0.89 16.91 2.67
310 2 4.45 20.47 2.67
311 2 6.23 20.47 0.89
312 2 6.23 15.13 6.23
313 1 0.0 14.24 7.12
314 1 0.0 17.8 10.68
315 1 1.78 16.02 8.9
316 1 3.56 14.24 10.68
317 1 1.78 19.58 12.46
318 1 5.34 19.58 8.9
319 1 3.56 17.8 7.12
320 1 5.34 16.02 12.46
321 2 0.89 15.13 8.01
322 2 6.23 18.69 9.79
323 2 2.67 16.91 8.01
324 2 4.45 15.13 11.57
325 2 0.89 18.69 11.57
326 2 4.45 18.69 8.01
327 2 2.67 20.47 11.57
328 2 2.67 15.13 9.79
329 2 4.45 16.91 13.35
330 2 6.23 16.91 11.57
331 2 2.67 18.69 13.35
332 2 0.89 20.47 13.35
333 2 0.89 16.91 9.79
334 2 4.45 20.47 9.79
335 2 6.23 20.47 8.01
336 2 6.23 15.13 13.35
337 1 0.0 14.24 14.24
338 1 0.0 17.8 17.8
339 1 1.78 16.02 16.02
340 1 3.56 14.24 17.8
341 1 1.78 19.58 19.58
342 1 5.34 19.58 16.02
343 1 3.56 17.8 14.24
344 1 5.34 16.02 19.58
345 2 0.89 15.13 15.13
346 2 6.23 18.69 16.91
347 2 2.67 16.91 15.13
348 2 4.45 15.13 18.69
349 2 0.89 18.69 18.69
350 2 4.45 18.69 15.13
351 2 2.67 20.47 18.69
352 2 2.67 15.13 16.91
353 2 4.45 16.91 20.47
354 2 6.23 16.91 18.69
355 2 2.67 18.69 20.47
356 2 0.89 20.47 20.47
357 2 0.89 16.91 16.91
358 2 4.45 20.47 16.91
359 2 6.23 20.47 15.13
360 2 6.23 15.13 20.47
361 1 0.0 14.24 21.36
362 1 0.0 17.8 24.92
363 1 1.78 16.02 23.14
364 1 3.56 14.24 24.92
365 1 1.78 19.58 26.7
366 1 5.34 19.58 23.14
367 1 3.56 17.8 21.36
368 1 5.34 16.02 26.7
369 2 0.89 15.13 22.25
370 2 6.23 18.69 24.03
371 2 2.67 16.91 22.25
372 2 4.45 15.13 25.81
373 2 0.89 18.69 25.81
374 2 4.45 18.69 22.25
375 2 2.67 20.47 25.81
376 2 2.67 15.13 24.03
377 2 4.45 16.91 27.59
378 2 6.23 16.91 25.81
379 2 2.67 18.69 27.59
380 2 0.89 20.47 27.59
381 2 0.89 16.91 24.03
382 2 4.45 20.47 24.03
383 2 6.23 20.47 22.25
384 2 6.23 15.13 27.59
385 1 0.0 14.24 28.48
386 1 0.0 17.8 32.04
387 1 1.78 16.02 30.26
388 1 3.56 14.24 32.04
389 1 1.78 19.58 33.82
390 1 5.34 19.58 30.26
391 1 3.56 17.8 28.48
392 1 5.34 16.02 33.82
393 2 0.89 15.13 29.37
394 2 6.23 18.69 31.15
395 2 2.67 16.91 29.37
396 2 4.45 15.13 32.93
397 2 0.89 18.69 32.93
398 2 4.45 18.69 29.37
399 2 2.67 20.47 32.93
400 2 2.67 15.13 31.15
401 2 4.45 16.91 34.71
402 2 6.23 16.91 32.93
403 2 2.67 18.69 34.71
404 2 0.89 20.47 34.71
405 2 0.89 16.91 31.15
406 2 4.45 20.47 31.15
407 2 6.23 20.47 29.37
408 2 6.23 15.13 34.71
409 1 0.0 14.24 35.6
410 1 0.0 17.8 39.16
411 1 1.78 16.02 37.38
412 1 3.56 14.24 39.16
413 1 1.78 19.58 40.94
414 1 5.34 19.58 37.38
415 1 3.56 17.8 35.6
416 1 5.34 16.02 40.94
417 2 0.89 15.13 36.49
418 2 6.23 18.69 38.27
419 2 2.67 16.91 36.49
420 2 4.45 15.13 40.05
421 2 0.89 18.69 40.05
422 2 4.45 18.69 36.49
423 2 2.67 20.47 40.05
424 2 2.67 15.13 38.27
425 2 4.45 16.91 41.83
426 2 6.23 16.91 40.05
427 2 2.67 18.69 41.83
428 2 0.89 20.47 41.83
429 2 0.89 16.91 38.27
430 2 4.45 20.47 38.27
431 2 6.23 20.47 36.49
432 2 6.23 15.13 41.83
433 1 0.0 21.36 0.0
434 1 0.0 24.92 3.56
435 1 1.78 23.14 1.78
436 1 3.56 21.36 3.56
437 1 1.78 26.7 5.34
438 1 5.34 26.7 1.78
439 1 3.56 24.92 0.0
440 1 5.34 23.14 5.34
441 2 0.89 22.25 0.89
442 2 6.23 25.81 2.67
443 2 2.67 24.03 0.89
444 2 4.45 22.25 4.45
445 2 0.89 25.81 4.45
446 2 4.45 25.81 0.89
447 2 2.67 27.59 4.45
448 2 2.67 22.25 2.67
449 2 4.45 24.03 6.23
450 2 6.23 24.03 4.45
451 2 2.67 25.81 6.23
452 2 0.89 27.59 6.23
453 2 0.89 24.03 2.67
454 2 4.45 27.59 2.67
455 2 6.23 27.59 0.89
456 2 6.23 22.25 6.23
457 1 0.0 21.36 7.12
458 1 0.0 24.92 10.68
459 1 1.78 23.14 8.9
460 1 3.56 21.36 10.68
461 1 1.78 26.7 12.46
462 1 5.34 26.7 8.9
463 1 3.56 24.92 7.12
464 1 5.34 23.14 12.46
465 2 0.89 22.25 8.01
466 2 6.23 25.81 9.79
467 2 2.67 24.03 8.01
468 2 4.45 22.25 11.57
469 2 0.89 25.81 11.57
470 2 4.45 25.81 8.01
471 2 2.67 27.59 11.57
472 2 2.67 22.25 9.79
473 2 4.45 24.03 13.35
474 2 6.23 24.03 11.57
475 2 2.67 25.81 13.35
476 2 0.89 27.59 13.35
477 2 0.89 24.03 9.79
478 2 4.45 27.59 9.79
479 2 6.23 27.59 8.01
480 2 6.23 22.25 13.35
481 1 0.0 21.36 14.24
482 1 0.0 24.92 17.8
483 1 1.78 23.14 16.02
484 1 3.56 21.36 17.8
485 1 1.78 26.7 19.58
486 1 5.34 26.7 16.02
487 1 3.56 24.92 14.24
488 1 5.34 23.14 19.58
489 2 0.89 22.25 15.13
490 2 6.23 25.81 16.91
491 2 2.67 24.03 15.13
492 2 4.45 22.25 18.69
493 2 0.89 25.81 18.69
494 2 4.45 25.81 15.13
495 2 2.67 27.59 18.69
496 2 2.67 22.25 16.91
497 2 4.45 24.03 20.47
498 2 6.23 24.03 18.69
499 2 2.67 25.81 20.47
500 2 0.89 27.59 20.47
501 2 0.89 24.03 16.91
502 2 4.45 27.59 16.91
503 2 6.23 27.59 15.13
504 2 6.23 22.25 20.47
505 1 0.0 21.36 21.36
506 1 0.0 24.92 24.92
507 1 1.78 23.14 23.14
508 1 3.56 21.36 24.92
509 1 1.78 26.7 26.7
510 1 5.34 26.7 23.14
511 1 3.56 24.92 21.36
512 1 5.34 23.14 26.7
513 2 0.89 22.25 22.25
514 2 6.23 25.81 24.03
515 2 2.67 24.03 22.25
516 2 4.45 22.25 25.81
517 2 0.89 25.81 25.81
518 2 4.45 25.81 22.25
519 2 2.67 27.59 25.81
520 2 2.67 22.25 24.03
521 2 4.45 24.03 27.59
522 2 6.23 24.03 25.81
523 2 2.67 25.81 27.59
524 2 0.89 27.59 27.59
525 2 0.89 24.03 24.03
526 2 4.45 27.59 24.03
527 2 6.23 27.59 22.25
528 2 6.23 22.25 27.59
529 1 0.0 21.36 28.48
530 1 0.0 24.92 32.04
531 1 1.78 23.14 30.26
532 1 3.56 21.36 32.04
533 1 1.78 26.7 33.82
534 1 5.34 26.7 30.26
535 1 3.56 24.92 28.48
536 1 5.34 23.14 33.82
537 2 0.89 22.25 29.37
538 2 6.23 25.81 31.15
539 2 2.67 24.03 29.37
540 2 4.45 22.25 32.93
541 2 0.89 25.81 32.93
542 2 4.45 25.81 29.37
543 2 2.67 27.59 32.93
544 2 2.67 22.25 31.15
545 2 4.45 24.03 34.71
546 2 6.23 24.03 32.93
547 2 2.67 25.81 34.71
548 2 0.89 27.59 34.71
549 2 0.89 24.03 31.15
550 2 4.45 27.59 31.15
551 2 6.23 27.59 29.37
552 2 6.23 22.25 34.71
553 1 0.0 21.36 35.6
554 1 0.0 24.92 39.16
555 1 1.78 23.14 37.38
556 1 3.56 21.36 39.16
557 1 1.78 26.7 40.94
558 1 5.34 26.7 37.38
559 1 3.56 24.92 35.6
560 1 5.34 23.14 40.94
561 2 0.89 22.25 36.49
562 2 6.23 25.81 38.27
563 2 2.67 24.03 36.49
564 2 4.45 22.25 40.05
565 2 0.89 25.81 40.05
566 2 4.45 25.81 36.49
567 2 2.67 27.59 40.05
568 2 2.67 22.25 38.27
569 2 4.45 24.03 41.83
570 2 6.23 24.03 40.05
571 2 2.67 25.81 41.83
572 2 0.89 27.59 41.83
573 2 0.89 24.03 38.27
574 2 4.45 27.59 38.27
575 2 6.23 27.59 36.49
576 2 6.23 22.25 41.83
577 1 0.0 28.48 0.0
578 1 0.0 32.04 3.56
579 1 1.78 30.26 1.78
580 1 3.56 28.48 3.56
581 1 1.78 33.82 5.34
582 1 5.34 33.82 1.78
583 1 3.56 32.04 0.0
584 1 5.34 30.26 5.34
585 2 0.89 29.37 0.89
586 2 6.23 32.93 2.67
587 2 2.67 31.15 0.89
588 2 4.45 29.37 4.45
589 2 0.89 32.93 4.45
590 2 4.45 32.93 0.89
591 2 2.67 34.71 4.45
592 2 2.67 29.37 2.67
593 2 4.45 31.15 6.23
594 2 6.23 31.15 4.45
595 2 2.67 32.93 6.23
596 2 0.89 34.71 6.23
597 2 0.89 31.15 2.67
598 2 4.45 34.71 2.67
599 2 6.23 34.71 0.89
600 2 6.23 29.37 6.23
601 1 0.0 28.48 7.12
602 1 0.0 32.04 10.68
603 1 1.78 30.26 8.9
604 1 3.56 28.48 10.68
605 1 1.78 33.82 12.46
606 1 5.34 33.82 8.9
607 1 3.56 32.04 7.12
608 1 5.34 30.26 12.46
609 2 0.89 29.37 8.01
610 2 6.23 32.93 9.79
611 2 2.67 31.15 8.01
612 2 4.45 29.37 11.57
613 2 0.89 32.93 11.57
614 2 4.45 32.93 8.01
615 2 2.67 34.71 11.57
616 2 2.67 29.37 9.79
617 2 4.45 31.15 13.35
618 2 6.23 31.15 11.57
619 2 2.67 32.93 13.35
620 2 0.89 34.71 13.35
621 2 0.89 31.15 9.79
622 2 4.45 34.71 9.79
623 2 6.23 34.71 8.01
624 2 6.23 29.37 13.35
625 1 0.0 28.48 14.24
626 1 0.0 32.04 17.8
627 1 1.78 30.26 16.02
628 1 3.56 28.48 17.8
629 1 1.78 33.82 19.58
630 1 5.34 33.82 16.02
631 1 3.56 32.04 14.24
632 1 5.34 30.26 19.58
633 2 0.89 29.37 15.13
634 2 6.23 32.93 16.91
635 2 2.67 31.15 15.13
636 2 4.45 29.37 18.69
637 2 0.89 32.93 18.69
638 2 4.45 32.93 15.13
639 2 2.67 34.71 18.69
640 2 2.67 29.37 16.91
641 2 4.45 31.15 20.47
642 2 6.23 31.15 18.69
643 2 2.67 32.93 20.47
644 2 0.89 34.71 20.47
645 2 0.89 31.15 16.91
646 2 4.45 34.71 16.91
647 2 6.23 34.71 15.13
648 2 6.23 29.37 20.47
649 1 0.0 28.48 21.36
650 1 0.0 32.04 24.92
651 1 1.78 30.26 23.14
652 1 3.56 28.48 24.92
653 1 1.78 33.82 26.7
654 1 5.34 33.82 23.14
655 1 3.56 32.04 21.36
656 1 5.34 30.26 26.7
657 2 0.89 29.37 22.25
658 2 6.23 32.93 24.03
659 2 2.67 31.15 22.25
660 2 4.45 29.37 25.81
661 2 0.89 32.93 25.81
662 2 4.45 32.93 22.25
663 2 2.67 34.71 25.81
664 2 2.67 29.37 24.03
665 2 4.45 31.15 27.59
666 2 6.23 31.15 25.81
667 2 2.67 32.93 27.59
668 2 0.89 34.71 27.59
669 2 0.89 31.15 24.03
670 2 4.45 34.71 24.03
671 2 6.23 34.71 22.25
672 2 6.23 29.37 27.59
673 1 0.0 28.48 28.48
674 1 0.0 32.04 32.04
675 1 1.78 30.26 30.26
676 1 3.56 28.48 32.04
677 1 1.78 33.82 33.82
678 1 5.34 33.82 30.26
679 1 3.56 32.04 28.48
680 1 5.34 30.26 33.82
681 2 0.89 29.37 29.37
682 2 6.23 32.93 31.15
683 2 2.67 31.15 29.37
684 2 4.45 29.37 32.93
685 2 0.89 32.93 32.93
686 2 4.45 32.93 29.37
687 2 2.67 34.71 32.93
688 2 2.67 29.37 31.15
689 2 4.45 31.15 34.71
690 2 6.23 31.15 32.93
691 2 2.67 32.93 34.71
692 2 0.89 34.71 34.71
693 2 0.89 31.15 31.15
694 2 4.45 34.71 31.15
695 2 6.23 34.71 29.37
696 2 6.23 29.37 34.71
697 1 0.0 28.48 35.6
698 1 0.0 32.04 39.16
699 1 1.78 30.26 37.38
700 1 3.56 28.48 39.16
701 1 1.78 33.82 40.94
702 1 5.34 33.82 37.38
703 1 3.56 32.04 35.6
704 1 5.34 30.26 40.94
705 2 0.89 29.37 36.49
706 2 6.23 32.93 38.27
707 2 2.67 31.15 36.49
708 2 4.45 29.37 40.05
709 2 0.89 32.93 40.05
710 2 4.45 32.93 36.49
711 2 2.67 34.71 40.05
712 2 2.67 29.37 38.27
713 2 4.45 31.15 41.83
714 2 6.23 31.15 40.05
715 2 2.67 32.93 41.83
716 2 0.89 34.71 41.83
717 2 0.89 31.15 38.27
718 2 4.45 34.71 38.27
719 2 6.23 34.71 36.49
720 2 6.23 29.37 41.83
721 1 0.0 35.6 0.0
722 1 0.0 39.16 3.56
723 1 1.78 37.38 1.78
724 1 3.56 35.6 3.56
725 1 1.78 40.94 5.34
726 1 5.34 40.94 1.78
727 1 3.56 39.16 0.0
728 1 5.34 37.38 5.34
729 2 0.89 36.49 0.89
730 2 6.23 40.05 2.67
731 2 2.67 38.27 0.89
732 2 4.45 36.49 4.45
733 2 0.89 40.05 4.45
734 2 4.45 40.05 0.89
735 2 2.67 41.83 4.45
736 2 2.67 36.49 2.67
737 2 4.45 38.27 6.23
738 2 6.23 38.27 4.45
739 2 2.67 40.05 6.23
740 2 0.89 41.83 6.23
741 2 0.89 38.27 2.67
742 2 4.45 41.83 2.67
743 2 6.23 41.83 0.89
744 2 6.23 36.49 6.23
745 1 0.0 35.6 7.12
746 1 0.0 39.16 10.68
747 1 1.78 37.38 8.9
748 1 3.56 35.6 10.68
749 1 1.78 40.94 12.46
750 1 5.34 40.94 8.9
751 1 3.56 39.16 7.12
752 1 5.34 37.38 12.46
753 2 0.89 36.49 8.01
754 2 6.23 40.05 9.79
755 2 2.67 38.27 8.01
756 2 4.45 36.49 11.57
757 2 0.89 40.05 11.57
758 2 4.45 40.05 8.01
759 2 2.67 41.83 11.57
760 2 2.67 36.49 9.79
761 2 4.45 38.27 13.35
762 2 6.23 38.27 11.57
763 2 2.67 40.05 13.35
764 2 0.89 41.83 13.35
765 2 0.89 38.27 9.79
766 2 4.45 41.83 9.79
767 2 6.23 41.83 8.01
768 2 6.23 36.49 13.35
769 1 0.0 35.6 14.24
770 1 0.0 39.16 17.8
771 1 1.78 37.38 16.02
772 1 3.56 35.6 17.8
773 1 1.78 40.94 19.58
774 1 5.34 40.94 16.02
775 1 3.56 39.16 14.24
776 1 5.34 37.38 19.58
777 2 0.89 36.49 15.13
778 2 6.23 40.05 16.91
779 2 2.67 38.27 15.13
780 2 4.45 36.49 18.69
781 2 0.89 40.05 18.69
782 2 4.45 40.05 15.13
783 2 2.67 41.83 18.69
784 2 2.67 36.49 16.91
785 2 4.45 38.27 20.47
786 2 6.23 38.27 18.69
787 2 2.67 40.05 20.47
788 2 0.89 41.83 20.47
789 2 0.89 38.27 16.91
790 2 4.45 41.83 16.91
791 2 6.23 41.83 15.13
792 2 6.23 36.49 20.47
793 1 0.0 35.6 21.36
794 1 0.0 39.16 24.92
795 1 1.78 37.38 23.14
796 1 3.56 35.6 24.92
797 1 1.78 40.94 26.7
798 1 5.34 40.94 23.14
799 1 3.56 39.16 21.36
800 1 5.34 37.38 26.7
801 2 0.89 36.49 22.25
802 2 6.23 40.05 24.03
803 2 2.67 38.27 22.25
804 2 4.45 36.49 25.81
805 2 0.89 40.05 25.81
806 2 4.45 40.05 22.25
807 2 2.67 41.83 25.81
808 2 2.67 36.49 24.03
809 2 4.45 38.27 27.59
810 2 6.23 38.27 25.81
811 2 2.67 40.05 27.59
812 2 0.89 41.83 27.59
813 2 0.89 38.27 24.03
814 2 4.45 41.83 24.03
815 2 6.23 41.83 22.25
816 2 6.23 36.49 27.59
817 1 0.0 35.6 28.48
818 1 0.0 39.16 32.04
819 1 1.78 37.38 30.26
820 1 3.56 35.6 32.04
821 1 1.78 40.94 33.82
822 1 5.34 40.94 30.26
823 1 3.56 39.16 28.48
824 1 5.34 37.38 33.82
825 2 0.89 36.49 29.37
826 2 6.23 40.05 31.15
827 2 2.67 38.27 29.37
828 2 4.45 36.49 32.93
829 2 0.89 40.05 32.93
830 2 4.45 40.05 29.37
831 2 2.67 41.83 32.93
832 2 2.67 36.49 31.15
833 2 4.45 38.27 34.71
834 2 6.23 38.27 32.93
835 2 2.67 40.05 34.71
836 2 0.89 41.83 34.71
837 2 0.89 38.27 31.15
838 2 4.45 41.83 31.15
839 2 6.23 41.83 29.37
840 2 6.23 36.49 34.71
841 1 0.0 35.6 35.6
842 1 0.0 39.16 39.16
843 1 1.78 37.38 37.38
844 1 3.56 35.6 39.16
845 1 1.78 40.94 40.94
846 1 5.34 40.94 37.38
847 1 3.56 39.16 35.6
848 1 5.34 37.38 40.94
849 2 0.89 36.49 36.49
850 2 6.23 40.05 38.27
851 2 2.67 38.27 36.49
852 2 4.45 36.49 40.05
853 2 0.89 40.05 40.05
854 2 4.45 40.05 36.49
855 2 2.67 41.83 40.05
856 2 2.67 36.49 38.27
857 2 4.45 38.27 41.83
858 2 6.23 38.27 40.05
859 2 2.67 40.05 41.83
860 2 0.89 41.83 41.83
861 2 0.89 38.27 38.27
862 2 4.45 41.83 38.27
863 2 6.23 41.83 36.49
864 2 6.23 36.49 41.83
865 1 7.12 0.0 0.0
866 1 7.12 3.56 3.56
867 1 8.9 1.78 1.78
868 1 10.68 0.0 3.56
869 1 8.9 5.34 5.34
870 1 12.46 5.34 1.78
871 1 10.68 3.56 0.0
872 1 12.46 1.78 5.34
873 2 8.01 0.89 0.89
874 2 13.35 4.45 2.67
875 2 9.79 2.67 0.89
876 2 11.57 0.89 4.45
877 2 8.01 4.45 4.45
878 2 11.57 4.45 0.89
879 2 9.79 6.23 4.45
880 2 9.79 0.89 2.67
881 2 11.57 2.67 6.23
882 2 13.35 2.67 4.45
883 2 9.79 4.45 6.23
884 2 8.01 6.23 6.23
885 2 8.01 2.67 2.67
886 2 11.57 6.23 2.67
887 2 13.35 6.23 0.89
888 2 13.35 0.89 6.23
889 1 7.12 0.0 7.12
890 1 7.12 3.56 10.68
891 1 8.9 1.78 8.9
892 1 10.68 0.0 10.68
893 1 8.9 5.34 12.46
894 1 12.46 5.34 8.9
895 1 10.68 3.56 7.12
896 1 12.46 1.78 12.46
897 2 8.01 0.89 8.01
898 2 13.35 4.45 9.79
899 2 9.79 2.67 8.01
900 2 11.57 0.89 11.57
901 2 8.01 4.45 11.57
902 2 11.57 4.45 8.01
903 2 9.79 6.23 11.57
904 2 9.79 0.89 9.79
905 2 11.57 2.67 13.35
906 2 13.35 2.67 11.57
907 2 9.79 4.45 13.35
908 2 8.01 6.23 13.35
909 2 8.01 2.67 9.79
910 2 11.57 6.23 9.79
911 2 13.35 6.23 8.01
912 2 13.35 0.89 13.35
913 1 7.12 0.0 14.24
914 1 7.12 3.56 17.8
915 1 8.9 1.78 16.02
916 1 10.68 0.0 17.8
917 1 8.9 5.34 19.58
918 1 12.46 5.34 16.02
919 1 10.68 3.56 14.24
920 1 12.46 1.78 19.58
921 2 8.01 0.89 15.13
922 2 13.35 4.45 16.91
923 2 9.79 2.67 15.13
924 2 11.57 0.89 18.69
925 2 8.01 4.45 18.69
926 2 11.57 4.45 15.13
927 2 9.79 6.23 18.69
928 2 9.79 0.89 16.91
929 2 11.57 2.67 20.47
930 2 13.35 2.67 18.69
931 2 9.79 4.45 20.47
932 2 8.01 6.23 20.47
933 2 8.01 2.67 16.91
934 2 11.57 6.23 16.91
935 2 13.35 6.23 15.13
936 2 13.35 0.89 20.47
937 1 7.12 0.0 21.36
938 1 7.12 3.56 24.92
939 1 8.9 1.78 23.14
940 1 10.68 0.0 24.92
941 1 8.9 5.34 26.7
942 1 12.46 5.34 23.14
943 1 10.68 3.56 21.36
944 1 12.46 1.78 26.7
945 2 8.01 0.89 22.25
946 2 13.35 4.45 24.03
947 2 9.79 2.67 22.25
948 2 11.57 0.89 25.81
949 2 8.01 4.45 25.81
950 2 11.57 4.45 22.25
951 2 9.79 6.23 25.81
952 2 9.79 0.89 24.03
953 2 11.57 2.67 27.59
954 2 13.35 2.67 25.81
955 2 9.79 4.45 27.59
956 2 8.01 6.23 27.59
957 2 8.01 2.67 24.03
958 2 11.57 6.23 24.03
959 2 13.35 6.23 22.25
960 2 13.35 0.89 27.59
961 1 7.12 0.0 28.48
962 1 7.12 3.56 32.04
963 1 8.9 1.78 30.26
964 1 10.68 0.0 32.04
965 1 8.9 5.34 33.82
966 1 12.46 5.34 30.26
967 1 10.68 3.56 28.48
968 1 12.46 1.78 33.82
969 2 8.01 0.89 29.37
970 2 13.35 4.45 31.15
971 2 9.79 2.67 29.37
972 2 11.57 0.89 32.93
973 2 8.01 4.45 32.93
974 2 11.57 4.45 29.37
975 2 9.79 6.23 32.93
976 2 9.79 0.89 31.15
977 2 11.57 2.67 34.71
978 2 13.35 2.67 32.93
979 2 9.79 4.45 34.71
980 2 8.01 6.23 34.71
981 2 8.01 2.67 31.15
982 2 11.57 6.23 31.15
983 2 13.35 6.23 29.37
984 2 13.35 0.89 34.71
985 1 7.12 0.0 35.6
986 1 7.12 3.56 39.16
987 1 8.9 1.78 37.38
988 1 10.68 0.0 39.16
989 1 8.9 5.34 40.94
990 1 12.46 5.34 37.38
991 1 10.68 3.56 35.6
992 1 12.46 1.78 40.94
993 2 8.01 0.89 36.49
994 2 13.35 4.45 38.27
995 2 9.79 2.67 36.49
996 2 11.57 0.89 40.05
997 2 8.01 4.45 40.05
998 2 11.57 4.45 36.49
999 2 9.79 6.23 40.05
1000 2 9.79 0.89 38.27
1001 2 11.57 2.67 41.83
1002 2 13.35 2.67 40.05
1003 2 9.79 4.45 41.83
1004 2 8.01 6.23 41.83
1005 2 8.01 2.67 38.27
1006 2 11.57 6.23 38.27
1007 2 13.35 6.23 36.49
1008 2 13.35 0.89 41.83
1009 1 7.12 7.12 0.0
1010 1 7.12 10.68 3.56
1011 1 8.9 8.9 1.78
1012 1 10.68 7.12 3.56
1013 1 8.9 12.46 5.34
1014 1 12.46 12.46 1.78
1015 1 10.68 10.68 0.0
1016 1 12.46 8.9 5.34
1017 2 8.01 8.01 0.89
1018 2 13.35 11.57 2.67
1019 2 9.79 9.79 0.89
1020 2 11.57 8.01 4.45
1021 2 8.01 11.57 4.45
1022 2 11.57 11.57 0.89
1023 2 9.79 13.35 4.45
1024 2 9.79 8.01 2.67
1025 2 11.57 9.79 6.23
1026 2 13.35 9.79 4.45
1027 2 9.79 11.57 6.23
1028 2 8.01 13.35 6.23
1029 2 8.01 9.79 2.67
1030 2 11.57 13.35 2.67
1031 2 13.35 13.35 0.89
1032 2 13.35 8.01 6.23
1033 1 7.12 7.12 7.12
1034 1 7.12 10.68 10.68
1035 1 8.9 8.9 8.9
1036 1 10.68 7.12 10.68
1037 1 8.9 12.46 12.46
1038 1 12.46 12.46 8.9
1039 1 10.68 10.68 7.12
1040 1 12.46 8.9 12.46
1041 2 8.01 8.01 8.01
1042 2 13.35 11.57 9.79
1043 2 9.79 9.79 8.01
1044 2 11.57 8.01 11.57
1045 2 8.01 11.57 11.57
1046 2 11.57 11.57 8.01
1047 2 9.79 13.35 11.57
1048 2 9.79 8.01 9.79
1049 2 11.57 9.79 13.35
1050 2 13.35 9.79 11.57
1051 2 9.79 11.57 13.35
1052 2 8.01 13.35 13.35
1053 2 8.01 9.79 9.79
1054 2 11.57 13.35 9.79
1055 2 13.35 13.35 8.01
1056 2 13.35 8.01 13.35
1057 1 7.12 7.12 14.24
1058 1 7.12 10.68 17.8
1059 1 8.9 8.9 16.02
1060 1 10.68 7.12 17.8
1061 1 8.9 12.46 19.58
1062 1 12.46 12.46 16.02
1063 1 10.68 10.68 14.24
1064 1 12.46 8.9 19.58
1065 2 8.01 8.01 15.13
1066 2 13.35 11.57 16.91
1067 2 9.79 9.79 15.13
1068 2 11.57 8.01 18.69
1069 2 8.01 11.57 18.69
1070 2 11.57 11.57 15.13
1071 2 9.79 13.35 18.69
1072 2 9.79 8.01 16.91
1073 2 11.57 9.79 20.47
1074 2 13.35 9.79 18.69
1075 2 9.79 11.57 20.47
1076 2 8.01 13.35 20.47
1077 2 8.01 9.79 16.91
1078 2 11.57 13.35 16.91
1079 2 13.35 13.35 15.13
1080 2 13.35 8.01 20.47
1081 1 7.12 7.12 21.36
1082 1 7.12 10.68 24.92
1083 1 8.9 8.9 23.14
1084 1 10.68 7.12 24.92
1085 1 8.9 12.46 26.7
1086 1 12.46 12.46 23.14
1087 1 10.68 10.68 21.36
1088 1 12.46 8.9 26.7
1089 2 8.01 8.01 22.25
1090 2 13.35 11.57 24.03
1091 2 9.79 9.79 22.25
1092 2 11.57 8.01 25.81
1093 2 8.01 11.57 25.81
1094 2 11.57 11.57 22.25
1095 2 9.79 13.35 25.81
1096 2 9.79 8.01 24.03
1097 2 11.57 9.79 27.59
1098 2 13.35 9.79 25.81
1099 2 9.79 11.57 27.59
1100 2 8.01 13.35 27.59
1101 2 8.01 9.79 24.03
1102 2 11.57 13.35 24.03
1103 2 13.35 13.35 22.25
1104 2 13.35 8.01 27.59
1105 1 7.12 7.12 28.48
1106 1 7.12 10.68 32.04
1107 1 8.9 8.9 30.26
1108 1 10.68 7.12 32.04
1109 1 8.9 12.46 33.82
1110 1 12.46 12.46 30.26
1111 1 10.68 10.68 28.48
1112 1 12.46 8.9 33.82
1113 2 8.01 8.01 29.37
1114 2 13.35 11.57 31.15
1115 2 9.79 9.79 29.37
1116 2 11.57 8.01 32.93
1117 2 8.01 11.57 32.93
1118 2 11.57 11.57 29.37
1119 2 9.79 13.35 32.93
1120 2 9.79 8.01 31.15
1121 2 11.57 9.79 34.71
1122 2 13.35 9.79 32.93
1123 2 9.79 11.57 34.71
1124 2 8.01 13.35 34.71
1125 2 8.01 9.79 31.15
1126 2 11.57 13.35 31.15
1127 2 13.35 13.35 29.37
1128 2 13.35 8.01 34.71
1129 1 7.12 7.12 35.6
1130 1 7.12 10.68 39.16
1131 1 8.9 8.9 37.38
1132 1 10.68 7.12 39.16
1133 1 8.9 12.46 40.94
1134 1 12.46 12.46 37.38
1135 1 10.68 10.68 35.6
1136 1 12.46 8.9 40.94
1137 2 8.01 8.01 36.49
1138 2 13.35 11.57 38.27
1139 2 9.79 9.79 36.49
1140 2 11.57 8.01 40.05
1141 2 8.01 11.57 40.05
1142 2 11.57 11.57 36.49
1143 2 9.79 13.35 40.05
1144 2 9.79 8.01 38.27
1145 2 11.57 9.79 41.83
1146 2 13.35 9.79 40.05
1147 2 9.79 11.57 41.83
1148 2 8.01 13.35 41.83
1149 2 8.01 9.79 38.27
1150 2 11.57 13.35 38.27
1151 2 13.35 13.35 36.49
1152 2 13.35 8.01 41.83
1153 1 7.12 14.24 0.0
1154 1 7.12 17.8 3.56
1155 1 8.9 16.02 1.78
1156 1 10.68 14.24 3.56
1157 1 8.9 19.58 5.34
1158 1 12.46 19.58 1.78
1159 1 10.68 17.8 0.0
1160 1 12.46 16.02 5.34
1161 2 8.01 15.13 0.89
1162 2 13.35 18.69 2.67
1163 2 9.79 16.91 0.89
1164 2 11.57 15.13 4.45
1165 2 8.01 18.69 4.45
1166 2 11.57 18.69 0.89
1167 2 9.79 20.47 4.45
1168 2 9.79 15.13 2.67
1169 2 11.57 16.91 6.23
1170 2 13.35 16.91 4.45
1171 2 9.79 18.69 6.23
1172 2 8.01 20.47 6.23
1173 2 8.01 16.91 2.67
1174 2 11.57 20.47 2.67
1175 2 13.35 20.47 0.89
1176 2 13.35 15.13 6.23
1177 1 7.12 14.24 7.12
1178 1 7.12 17.8 10.68
1179 1 8.9 16.02 8.9
1180 1 10.68 14.24 10.68
1181 1 8.9 19.58 12.46
1182 1 12.46 19.58 8.9
1183 1 10.68 17.8 7.12
1184 1 12.46 16.02 12.46
1185 2 8.01 15.13 8.01
1186 2 13.35 18.69 9.79
1187 2 9.79 16.91 8.01
1188 2 11.57 15.13 11.57
1189 2 8.01 18.69 11.57
1190 2 11.57 18.69 8.01
1191 2 9.79 20.47 11.57
1192 2 9.79 15.13 9.79
1193 2 11.57 16.91 13.35
1194 2 13.35 16.91 11.57
1195 2 9.79 18.69 13.35
1196 2 8.01 20.47 13.35
1197 2 8.01 16.91 9.79
1198 2 11.57 20.47 9.79
1199 2 13.35 20.47 8.01
1200 2 13.35 15.13 13.35
1201 1 7.12 14.24 14.24
1202 1 7.12 17.8 17.8
1203 1 8.9 16.02 16.02
1204 1 10.68 14.24 17.8
1205 1 8.9 19.58 19.58
1206 1 12.46 19.58 16.02
1207 1 10.68 17.8 14.24
1208 1 12.46 16.02 19.58
1209 2 8.01 15.13 15.13
1210 2 13.35 18.69 16.91
1211 2 9.79 16.91 15.13
1212 2 11.57 15.13 18.69
1213 2 8.01 18.69 18.69
1214 2 11.57 18.69 15.13
1215 2 9.79 20.47 18.69
1216 2 9.79 15.13 16.91
1217 2 11.57 16.91 20.47
1218 2 13.35 16.91 18.69
1219 2 9.79 18.69 20.47
1220 2 8.01 20.47 20.47
1221 2 8.01 16.91 16.91
1222 2 11.57 20.47 16.91
1223 2 13.35 20.47 15.13
1224 2 13.35 15.13 20.47
1225 1 7.12 14.24 21.36
1226 1 7.12 17.8 24.92
1227 1 8.9 16.02 23.14
1228 1 10.68 14.24 24.92
1229 1 8.9 19.58 26.7
1230 1 12.46 19.58 23.14
1231 1 10.68 17.8 21.36
1232 1 12.46 16.02 26.7
1233 2 8.01 15.13 22.25
1234 2 13.35 18.69 24.03
1235 2 9.79 16.91 22.25
1236 2 11.57 15.13 25.81
1237 2 8.01 18.69 25.81
1238 2 11.57 18.69 22.25
1239 2 9.79 20.47 25.81
1240 2 9.79 15.13 24.03
1241 2 11.57 16.91 27.59
1242 2 13.35 16.91 25.81
1243 2 9.79 18.69 27.59
1244 2 8.01 20.47 27.59
1245 2 8.01 16.91 24.03
1246 2 11.57 20.47 24.03
1247 2 13.35 20.47 22.25
1248 2 13.35 15.13 27.59
1249 1 7.12 14.24 28.48
1250 1 7.12 17.8 32.04
1251 1 8.9 16.02 30.26
1252 1 10.68 14.24 32.04
1253 1 8.9 19.58 33.82
1254 1 12.46 19.58 30.26
1255 1 10.68 17.8 28.48
1256 1 12.46 16.02 33.82
1257 2 8.01 15.13 29.37
1258 2 13.35 18.69 31.15
1259 2 9.79 16.91 29.37
1260 2 11.57 15.13 32.93
1261 2 8.01 18.69 32.93
1262 2 11.57 18.69 29.37
1263 2 9.79 20.47 32.93
1264 2 9.79 15.13 31.15
1265 2 11.57 16.91 34.71
1266 2 13.35 16.91 32.93
1267 2 9.79 18.69 34.71
1268 2 8.01 20.47 34.71
1269 2 8.01 16.91 31.15
1270 2 11.57 20.47 31.15
1271 2 13.35 20.47 29.37
1272 2 13.35 15.13 34.71
1273 1 7.12 14.24 35.6
1274 1 7.12 17.8 39.16
1275 1 8.9 16.02 37.38
1276 1 10.68 14.24 39.16
1277 1 8.9 19.58 40.94
1278 1 12.46 19.58 37.38
1279 1 10.68 17.8 35.6
1280 1 12.46 16.02 40.94
1281 2 8.01 15.13 36.49
1282 2 13.35 18.69 38.27
1283 2 9.79 16.91 36.49
1284 2 11.57 15.13 40.05
1285 2 8.01 18.69 40.05
1286 2 11.57 18.69 36.49
1287 2 9.79 20.47 40.05
1288 2 9.79 15.13 38.27
1289 2 11.57 16.91 41.83
1290 2 13.35 16.91 40.05
1291 2 9.79 18.69 41.83
1292 2 8.01 20.47 41.83
1293 2 8.01 16.91 38.27
1294 2 11.57 20.47 38.27
1295 2 13.35 20.47 36.49
1296 2 13.35 15.13 41.83
1297 1 7.12 21.36 0.0
1298 1 7.12 24.92 3.56
1299 1 8.9 23.14 1.78
1300 1 10.68 21.36 3.56
1301 1 8.9 26.7 5.34
1302 1 12.46 26.7 1.78
1303 1 10.68 24.92 0.0
1304 1 12.46 23.14 5.34
1305 2 8.01 22.25 0.89
1306 2 13.35 25.81 2.67
1307 2 9.79 24.03 0.89
1308 2 11.57 22.25 4.45
1309 2 8.01 25.81 4.45
1310 2 11.57 25.81 0.89
1311 2 9.79 27.59 4.45
1312 2 9.79 22.25 2.67
1313 2 11.57 24.03 6.23
1314 2 13.35 24.03 4.45
1315 2 9.79 25.81 6.23
1316 2 8.01 27.59 6.23
1317 2 8.01 24.03 2.67
1318 2 11.57 27.59 2.67
1319 2 13.35 27.59 0.89
1320 2 13.35 22.25 6.23
1321 1 7.12 21.36 7.12