LAMMPS Description

     1728  atoms
     0  bonds
     0  angles
     0  dihedrals
     0  impropers

     2  atom types

  0.0 56.96 xlo xhi
  0.0 21.36 ylo yhi
  0.0 21.36 zlo zhi

Masses

    1 28.0855
    2  15.9994

Atoms # atomic

1 1 0.0 0.0 0.0
2 1 0.0 3.56 3.56
3 1 1.78 1.78 1.78
4 1 3.56 0.0 3.56
5 1 1.78 5.34 5.34
6 1 5.34 5.34 1.78
7 1 3.56 3.56 0.0
8 1 5.34 1.78 5.34
9 2 0.89 0.89 0.89
10 2 6.23 4.45 2.67
11 2 2.67 2.67 0.89
12 2 4.45 0.89 4.45
13 2 0.89 4.45 4.45
14 2 4.45 4.45 0.89
15 2 2.67 6.23 4.45
16 2 2.67 0.89 2.67
17 2 4.45 2.67 6.23
18 2 6.23 2.67 4.45
19 2 2.67 4.45 6.23
20 2 0.89 6.23 6.23
21 2 0.89 2.67 2.67
22 2 4.45 6.23 2.67
23 2 6.23 6.23 0.89
24 2 6.23 0.89 6.23
25 1 0.0 0.0 7.12
26 1 0.0 3.56 10.68
27 1 1.78 1.78 8.9
28 1 3.56 0.0 10.68
29 1 1.78 5.34 12.46
30 1 5.34 5.34 8.9
31 1 3.56 3.56 7.12
32 1 5.34 1.78 12.46
33 2 0.89 0.89 8.01
34 2 6.23 4.45 9.79
35 2 2.67 2.67 8.01
36 2 4.45 0.89 11.57
37 2 0.89 4.45 11.57
38 2 4.45 4.45 8.01
39 2 2.67 6.23 11.57
40 2 2.67 0.89 9.79
41 2 4.45 2.67 13.35
42 2 6.23 2.67 11.57
43 2 2.67 4.45 13.35
44 2 0.89 6.23 13.35
45 2 0.89 2.67 9.79
46 2 4.45 6.23 9.79
47 2 6.23 6.23 8.01
48 2 6.23 0.89 13.35
49 1 0.0 0.0 14.24
50 1 0.0 3.56 17.8
51 1 1.78 1.78 16.02
52 1 3.56 0.0 17.8
53 1 1.78 5.34 19.58
54 1 5.34 5.34 16.02
55 1 3.56 3.56 14.24
56 1 5.34 1.78 19.58
57 2 0.89 0.89 15.13
58 2 6.23 4.45 16.91
59 2 2.67 2.67 15.13
60 2 4.45 0.89 18.69
61 2 0.89 4.45 18.69
62 2 4.45 4.45 15.13
63 2 2.67 6.23 18.69
64 2 2.67 0.89 16.91
65 2 4.45 2.67 20.47
66 2 6.23 2.67 18.69
67 2 2.67 4.45 20.47
68 2 0.89 6.23 20.47
69 2 0.89 2.67 16.91
70 2 4.45 6.23 16.91
71 2 6.23 6.23 15.13
72 2 6.23 0.89 20.47
73 1 0.0 7.12 0.0
74 1 0.0 10.68 3.56
75 1 1.78 8.9 1.78
76 1 3.56 7.12 3.56
77 1 1.78 12.46 5.34
78 1 5.34 12.46 1.78
79 1 3.56 10.68 0.0
80 1 5.34 8.9 5.34
81 2 0.89 8.01 0.89
82 2 6.23 11.57 2.67
83 2 2.67 9.79 0.89
84 2 4.45 8.01 4.45
85 2 0.89 11.57 4.45
86 2 4.45 11.57 0.89
87 2 2.67 13.35 4.45
88 2 2.67 8.01 2.67
89 2 4.45 9.79 6.23
90 2 6.23 9.79 4.45
91 2 2.67 11.57 6.23
92 2 0.89 13.35 6.23
93 2 0.89 9.79 2.67
94 2 4.45 13.35 2.67
95 2 6.23 13.35 0.89
96 2 6.23 8.01 6.23
97 1 0.0 7.12 7.12
98 1 0.0 10.68 10.68
99 1 1.78 8.9 8.9
100 1 3.56 7.12 10.68
101 1 1.78 12.46 12.46
102 1 5.34 12.46 8.9
103 1 3.56 10.68 7.12
104 1 5.34 8.9 12.46
105 2 0.89 8.01 8.01
106 2 6.23 11.57 9.79
107 2 2.67 9.79 8.01
108 2 4.45 8.01 11.57
109 2 0.89 11.57 11.57
110 2 4.45 11.57 8.01
111 2 2.67 13.35 11.57
112 2 2.67 8.01 9.79
113 2 4.45 9.79 13.35
114 2 6.23 9.79 11.57
115 2 2.67 11.57 13.35
116 2 0.89 13.35 13.35
117 2 0.89 9.79 9.79
118 2 4.45 13.35 9.79
119 2 6.23 13.35 8.01
120 2 6.23 8.01 13.35
121 1 0.0 7.12 14.24
122 1 0.0 10.68 17.8
123 1 1.78 8.9 16.02
124 1 3.56 7.12 17.8
125 1 1.78 12.46 19.58
126 1 5.34 12.46 16.02
127 1 3.56 10.68 14.24
128 1 5.34 8.9 19.58
129 2 0.89 8.01 15.13
130 2 6.23 11.57 16.91
131 2 2.67 9.79 15.13
132 2 4.45 8.01 18.69
133 2 0.89 11.57 18.69
134 2 4.45 11.57 15.13
135 2 2.67 13.35 18.69
136 2 2.67 8.01 16.91
137 2 4.45 9.79 20.47
138 2 6.23 9.79 18.69
139 2 2.67 11.57 20.47
140 2 0.89 13.35 20.47
141 2 0.89 9.79 16.91
142 2 4.45 13.35 16.91
143 2 6.23 13.35 15.13
144 2 6.23 8.01 20.47
145 1 0.0 14.24 0.0
146 1 0.0 17.8 3.56
147 1 1.78 16.02 1.78
148 1 3.56 14.24 3.56
149 1 1.78 19.58 5.34
150 1 5.34 19.58 1.78
151 1 3.56 17.8 0.0
152 1 5.34 16.02 5.34
153 2 0.89 15.13 0.89
154 2 6.23 18.69 2.67
155 2 2.67 16.91 0.89
156 2 4.45 15.13 4.45
157 2 0.89 18.69 4.45
158 2 4.45 18.69 0.89
159 2 2.67 20.47 4.45
160 2 2.67 15.13 2.67
161 2 4.45 16.91 6.23
162 2 6.23 16.91 4.45
163 2 2.67 18.69 6.23
164 2 0.89 20.47 6.23
165 2 0.89 16.91 2.67
166 2 4.45 20.47 2.67
167 2 6.23 20.47 0.89
168 2 6.23 15.13 6.23
169 1 0.0 14.24 7.12
170 1 0.0 17.8 10.68
171 1 1.78 16.02 8.9
172 1 3.56 14.24 10.68
173 1 1.78 19.58 12.46
174 1 5.34 19.58 8.9
175 1 3.56 17.8 7.12
176 1 5.34 16.02 12.46
177 2 0.89 15.13 8.01
178 2 6.23 18.69 9.79
179 2 2.67 16.91 8.01
180 2 4.45 15.13 11.57
181 2 0.89 18.69 11.57
182 2 4.45 18.69 8.01
183 2 2.67 20.47 11.57
184 2 2.67 15.13 9.79
185 2 4.45 16.91 13.35
186 2 6.23 16.91 11.57
187 2 2.67 18.69 13.35
188 2 0.89 20.47 13.35
189 2 0.89 16.91 9.79
190 2 4.45 20.47 9.79
191 2 6.23 20.47 8.01
192 2 6.23 15.13 13.35
193 1 0.0 14.24 14.24
194 1 0.0 17.8 17.8
195 1 1.78 16.02 16.02
196 1 3.56 14.24 17.8
197 1 1.78 19.58 19.58
198 1 5.34 19.58 16.02
199 1 3.56 17.8 14.24
200 1 5.34 16.02 19.58
201 2 0.89 15.13 15.13
202 2 6.23 18.69 16.91
203 2 2.67 16.91 15.13
204 2 4.45 15.13 18.69
205 2 0.89 18.69 18.69
206 2 4.45 18.69 15.13
207 2 2.67 20.47 18.69
208 2 2.67 15.13 16.91
209 2 4.45 16.91 20.47
210 2 6.23 16.91 18.69
211 2 2.67 18.69 20.47
212 2 0.89 20.47 20.47
213 2 0.89 16.91 16.91
214 2 4.45 20.47 16.91
215 2 6.23 20.47 15.13
216 2 6.23 15.13 20.47
217 1 7.12 0.0 0.0
218 1 7.12 3.56 3.56
219 1 8.9 1.78 1.78
220 1 10.68 0.0 3.56
221 1 8.9 5.34 5.34
222 1 12.46 5.34 1.78
223 1 10.68 3.56 0.0
224 1 12.46 1.78 5.34
225 2 8.01 0.89 0.89
226 2 13.35 4.45 2.67
227 2 9.79 2.67 0.89
228 2 11.57 0.89 4.45
229 2 8.01 4.45 4.45
230 2 11.57 4.45 0.89
231 2 9.79 6.23 4.45
232 2 9.79 0.89 2.67
233 2 11.57 2.67 6.23
234 2 13.35 2.67 4.45
235 2 9.79 4.45 6.23
236 2 8.01 6.23 6.23
237 2 8.01 2.67 2.67
238 2 11.57 6.23 2.67
239 2 13.35 6.23 0.89
240 2 13.35 0.89 6.23
241 1 7.12 0.0 7.12
242 1 7.12 3.56 10.68
243 1 8.9 1.78 8.9
244 1 10.68 0.0 10.68
245 1 8.9 5.34 12.46
246 1 12.46 5.34 8.9
247 1 10.68 3.56 7.12
248 1 12.46 1.78 12.46
249 2 8.01 0.89 8.01
250 2 13.35 4.45 9.79
251 2 9.79 2.67 8.01
252 2 11.57 0.89 11.57
253 2 8.01 4.45 11.57
254 2 11.57 4.45 8.01
255 2 9.79 6.23 11.57
256 2 9.79 0.89 9.79
257 2 11.57 2.67 13.35
258 2 13.35 2.67 11.57
259 2 9.79 4.45 13.35
260 2 8.01 6.23 13.35
261 2 8.01 2.67 9.79
262 2 11.57 6.23 9.79
263 2 13.35 6.23 8.01
264 2 13.35 0.89 13.35
265 1 7.12 0.0 14.24
266 1 7.12 3.56 17.8
267 1 8.9 1.78 16.02
268 1 10.68 0.0 17.8
269 1 8.9 5.34 19.58
270 1 12.46 5.34 16.02
271 1 10.68 3.56 14.24
272 1 12.46 1.78 19.58
273 2 8.01 0.89 15.13
274 2 13.35 4.45 16.91
275 2 9.79 2.67 15.13
276 2 11.57 0.89 18.69
277 2 8.01 4.45 18.69
278 2 11.57 4.45 15.13
279 2 9.79 6.23 18.69
280 2 9.79 0.89 16.91
281 2 11.57 2.67 20.47
282 2 13.35 2.67 18.69
283 2 9.79 4.45 20.47
284 2 8.01 6.23 20.47
285 2 8.01 2.67 16.91
286 2 11.57 6.23 16.91
287 2 13.35 6.23 15.13
288 2 13.35 0.89 20.47
289 1 7.12 7.12 0.0
290 1 7.12 10.68 3.56
291 1 8.9 8.9 1.78
292 1 10.68 7.12 3.56
293 1 8.9 12.46 5.34
294 1 12.46 12.46 1.78
295 1 10.68 10.68 0.0
296 1 12.46 8.9 5.34
297 2 8.01 8.01 0.89
298 2 13.35 11.57 2.67
299 2 9.79 9.79 0.89
300 2 11.57 8.01 4.45
301 2 8.01 11.57 4.45
302 2 11.57 11.57 0.89
303 2 9.79 13.35 4.45
304 2 9.79 8.01 2.67
305 2 11.57 9.79 6.23
306 2 13.35 9.79 4.45
307 2 9.79 11.57 6.23
308 2 8.01 13.35 6.23
309 2 8.01 9.79 2.67
310 2 11.57 13.35 2.67
311 2 13.35 13.35 0.89
312 2 13.35 8.01 6.23
313 1 7.12 7.12 7.12
314 1 7.12 10.68 10.68
315 1 8.9 8.9 8.9
316 1 10.68 7.12 10.68
317 1 8.9 12.46 12.46
318 1 12.46 12.46 8.9
319 1 10.68 10.68 7.12
320 1 12.46 8.9 12.46
321 2 8.01 8.01 8.01
322 2 13.35 11.57 9.79
323 2 9.79 9.79 8.01
324 2 11.57 8.01 11.57
325 2 8.01 11.57 11.57
326 2 11.57 11.57 8.01
327 2 9.79 13.35 11.57
328 2 9.79 8.01 9.79
329 2 11.57 9.79 13.35
330 2 13.35 9.79 11.57
331 2 9.79 11.57 13.35
332 2 8.01 13.35 13.35
333 2 8.01 9.79 9.79
334 2 11.57 13.35 9.79
335 2 13.35 13.35 8.01
336 2 13.35 8.01 13.35
337 1 7.12 7.12 14.24
338 1 7.12 10.68 17.8
339 1 8.9 8.9 16.02
340 1 10.68 7.12 17.8
341 1 8.9 12.46 19.58
342 1 12.46 12.46 16.02
343 1 10.68 10.68 14.24
344 1 12.46 8.9 19.58
345 2 8.01 8.01 15.13
346 2 13.35 11.57 16.91
347 2 9.79 9.79 15.13
348 2 11.57 8.01 18.69
349 2 8.01 11.57 18.69
350 2 11.57 11.57 15.13
351 2 9.79 13.35 18.69
352 2 9.79 8.01 16.91
353 2 11.57 9.79 20.47
354 2 13.35 9.79 18.69
355 2 9.79 11.57 20.47
356 2 8.01 13.35 20.47
357 2 8.01 9.79 16.91
358 2 11.57 13.35 16.91
359 2 13.35 13.35 15.13
360 2 13.35 8.01 20.47
361 1 7.12 14.24 0.0
362 1 7.12 17.8 3.56
363 1 8.9 16.02 1.78
364 1 10.68 14.24 3.56
365 1 8.9 19.58 5.34
366 1 12.46 19.58 1.78
367 1 10.68 17.8 0.0
368 1 12.46 16.02 5.34
369 2 8.01 15.13 0.89
370 2 13.35 18.69 2.67
371 2 9.79 16.91 0.89
372 2 11.57 15.13 4.45
373 2 8.01 18.69 4.45
374 2 11.57 18.69 0.89
375 2 9.79 20.47 4.45
376 2 9.79 15.13 2.67
377 2 11.57 16.91 6.23
378 2 13.35 16.91 4.45
379 2 9.79 18.69 6.23
380 2 8.01 20.47 6.23
381 2 8.01 16.91 2.67
382 2 11.57 20.47 2.67
383 2 13.35 20.47 0.89
384 2 13.35 15.13 6.23
385 1 7.12 14.24 7.12
386 1 7.12 17.8 10.68
387 1 8.9 16.02 8.9
388 1 10.68 14.24 10.68
389 1 8.9 19.58 12.46
390 1 12.46 19.58 8.9
391 1 10.68 17.8 7.12
392 1 12.46 16.02 12.46
393 2 8.01 15.13 8.01
394 2 13.35 18.69 9.79
395 2 9.79 16.91 8.01
396 2 11.57 15.13 11.57
397 2 8.01 18.69 11.57
398 2 11.57 18.69 8.01
399 2 9.79 20.47 11.57
400 2 9.79 15.13 9.79
401 2 11.57 16.91 13.35
402 2 13.35 16.91 11.57
403 2 9.79 18.69 13.35
404 2 8.01 20.47 13.35
405 2 8.01 16.91 9.79
406 2 11.57 20.47 9.79
407 2 13.35 20.47 8.01
408 2 13.35 15.13 13.35
409 1 7.12 14.24 14.24
410 1 7.12 17.8 17.8
411 1 8.9 16.02 16.02
412 1 10.68 14.24 17.8
413 1 8.9 19.58 19.58
414 1 12.46 19.58 16.02
415 1 10.68 17.8 14.24
416 1 12.46 16.02 19.58
417 2 8.01 15.13 15.13
418 2 13.35 18.69 16.91
419 2 9.79 16.91 15.13
420 2 11.57 15.13 18.69
421 2 8.01 18.69 18.69
422 2 11.57 18.69 15.13
423 2 9.79 20.47 18.69
424 2 9.79 15.13 16.91
425 2 11.57 16.91 20.47
426 2 13.35 16.91 18.69
427 2 9.79 18.69 20.47
428 2 8.01 20.47 20.47
429 2 8.01 16.91 16.91
430 2 11.57 20.47 16.91
431 2 13.35 20.47 15.13
432 2 13.35 15.13 20.47
433 1 14.24 0.0 0.0
434 1 14.24 3.56 3.56
435 1 16.02 1.78 1.78
436 1 17.8 0.0 3.56
437 1 16.02 5.34 5.34
438 1 19.58 5.34 1.78
439 1 17.8 3.56 0.0
440 1 19.58 1.78 5.34
441 2 15.13 0.89 0.89
442 2 20.47 4.45 2.67
443 2 16.91 2.67 0.89
444 2 18.69 0.89 4.45
445 2 15.13 4.45 4.45
446 2 18.69 4.45 0.89
447 2 16.91 6.23 4.45
448 2 16.91 0.89 2.67
449 2 18.69 2.67 6.23
450 2 20.47 2.67 4.45
451 2 16.91 4.45 6.23
452 2 15.13 6.23 6.23
453 2 15.13 2.67 2.67
454 2 18.69 6.23 2.67
455 2 20.47 6.23 0.89
456 2 20.47 0.89 6.23
457 1 14.24 0.0 7.12
458 1 14.24 3.56 10.68
459 1 16.02 1.78 8.9
460 1 17.8 0.0 10.68
461 1 16.02 5.34 12.46
462 1 19.58 5.34 8.9
463 1 17.8 3.56 7.12
464 1 19.58 1.78 12.46
465 2 15.13 0.89 8.01
466 2 20.47 4.45 9.79
467 2 16.91 2.67 8.01
468 2 18.69 0.89 11.57
469 2 15.13 4.45 11.57
470 2 18.69 4.45 8.01
471 2 16.91 6.23 11.57
472 2 16.91 0.89 9.79
473 2 18.69 2.67 13.35
474 2 20.47 2.67 11.57
475 2 16.91 4.45 13.35
476 2 15.13 6.23 13.35
477 2 15.13 2.67 9.79
478 2 18.69 6.23 9.79
479 2 20.47 6.23 8.01
480 2 20.47 0.89 13.35
481 1 14.24 0.0 14.24
482 1 14.24 3.56 17.8
483 1 16.02 1.78 16.02
484 1 17.8 0.0 17.8
485 1 16.02 5.34 19.58
486 1 19.58 5.34 16.02
487 1 17.8 3.56 14.24
488 1 19.58 1.78 19.58
489 2 15.13 0.89 15.13
490 2 20.47 4.45 16.91
491 2 16.91 2.67 15.13
492 2 18.69 0.89 18.69
493 2 15.13 4.45 18.69
494 2 18.69 4.45 15.13
495 2 16.91 6.23 18.69
496 2 16.91 0.89 16.91
497 2 18.69 2.67 20.47
498 2 20.47 2.67 18.69
499 2 16.91 4.45 20.47
500 2 15.13 6.23 20.47
501 2 15.13 2.67 16.91
502 2 18.69 6.23 16.91
503 2 20.47 6.23 15.13
504 2 20.47 0.89 20.47
505 1 14.24 7.12 0.0
506 1 14.24 10.68 3.56
507 1 16.02 8.9 1.78
508 1 17.8 7.12 3.56
509 1 16.02 12.46 5.34
510 1 19.58 12.46 1.78
511 1 17.8 10.68 0.0
512 1 19.58 8.9 5.34
513 2 15.13 8.01 0.89
514 2 20.47 11.57 2.67
515 2 16.91 9.79 0.89
516 2 18.69 8.01 4.45
517 2 15.13 11.57 4.45
518 2 18.69 11.57 0.89
519 2 16.91 13.35 4.45
520 2 16.91 8.01 2.67
521 2 18.69 9.79 6.23
522 2 20.47 9.79 4.45
523 2 16.91 11.57 6.23
524 2 15.13 13.35 6.23
525 2 15.13 9.79 2.67
526 2 18.69 13.35 2.67
527 2 20.47 13.35 0.89
528 2 20.47 8.01 6.23
529 1 14.24 7.12 7.12
530 1 14.24 10.68 10.68
531 1 16.02 8.9 8.9
532 1 17.8 7.12 10.68
533 1 16.02 12.46 12.46
534 1 19.58 12.46 8.9
535 1 17.8 10.68 7.12
536 1 19.58 8.9 12.46
537 2 15.13 8.01 8.01
538 2 20.47 11.57 9.79
539 2 16.91 9.79 8.01
540 2 18.69 8.01 11.57
541 2 15.13 11.57 11.57
542 2 18.69 11.57 8.01
543 2 16.91 13.35 11.57
544 2 16.91 8.01 9.79
545 2 18.69 9.79 13.35
546 2 20.47 9.79 11.57
547 2 16.91 11.57 13.35
548 2 15.13 13.35 13.35
549 2 15.13 9.79 9.79
550 2 18.69 13.35 9.79
551 2 20.47 13.35 8.01
552 2 20.47 8.01 13.35
553 1 14.24 7.12 14.24
554 1 14.24 10.68 17.8
555 1 16.02 8.9 16.02
556 1 17.8 7.12 17.8
557 1 16.02 12.46 19.58
558 1 19.58 12.46 16.02
559 1 17.8 10.68 14.24
560 1 19.58 8.9 19.58
561 2 15.13 8.01 15.13
562 2 20.47 11.57 16.91
563 2 16.91 9.79 15.13
564 2 18.69 8.01 18.69
565 2 15.13 11.57 18.69
566 2 18.69 11.57 15.13
567 2 16.91 13.35 18.69
568 2 16.91 8.01 16.91
569 2 18.69 9.79 20.47
570 2 20.47 9.79 18.69
571 2 16.91 11.57 20.47
572 2 15.13 13.35 20.47
573 2 15.13 9.79 16.91
574 2 18.69 13.35 16.91
575 2 20.47 13.35 15.13
576 2 20.47 8.01 20.47
577 1 14.24 14.24 0.0
578 1 14.24 17.8 3.56
579 1 16.02 16.02 1.78
580 1 17.8 14.24 3.56
581 1 16.02 19.58 5.34
582 1 19.58 19.58 1.78
583 1 17.8 17.8 0.0
584 1 19.58 16.02 5.34
585 2 15.13 15.13 0.89
586 2 20.47 18.69 2.67
587 2 16.91 16.91 0.89
588 2 18.69 15.13 4.45
589 2 15.13 18.69 4.45
590 2 18.69 18.69 0.89
591 2 16.91 20.47 4.45
592 2 16.91 15.13 2.67
593 2 18.69 16.91 6.23
594 2 20.47 16.91 4.45
595 2 16.91 18.69 6.23
596 2 15.13 20.47 6.23
597 2 15.13 16.91 2.67
598 2 18.69 20.47 2.67
599 2 20.47 20.47 0.89
600 2 20.47 15.13 6.23
601 1 14.24 14.24 7.12
602 1 14.24 17.8 10.68
603 1 16.02 16.02 8.9
604 1 17.8 14.24 10.68
605 1 16.02 19.58 12.46
606 1 19.58 19.58 8.9
607 1 17.8 17.8 7.12
608 1 19.58 16.02 12.46
609 2 15.13 15.13 8.01
610 2 20.47 18.69 9.79
611 2 16.91 16.91 8.01
612 2 18.69 15.13 11.57
613 2 15.13 18.69 11.57
614 2 18.69 18.69 8.01
615 2 16.91 20.47 11.57
616 2 16.91 15.13 9.79
617 2 18.69 16.91 13.35
618 2 20.47 16.91 11.57
619 2 16.91 18.69 13.35
620 2 15.13 20.47 13.35
621 2 15.13 16.91 9.79
622 2 18.69 20.47 9.79
623 2 20.47 20.47 8.01
624 2 20.47 15.13 13.35
625 1 14.24 14.24 14.24
626 1 14.24 17.8 17.8
627 1 16.02 16.02 16.02
628 1 17.8 14.24 17.8
629 1 16.02 19.58 19.58
630 1 19.58 19.58 16.02
631 1 17.8 17.8 14.24
632 1 19.58 16.02 19.58
633 2 15.13 15.13 15.13
634 2 20.47 18.69 16.91
635 2 16.91 16.91 15.13
636 2 18.69 15.13 18.69
637 2 15.13 18.69 18.69
638 2 18.69 18.69 15.13
639 2 16.91 20.47 18.69
640 2 16.91 15.13 16.91
641 2 18.69 16.91 20.47
642 2 20.47 16.91 18.69
643 2 16.91 18.69 20.47
644 2 15.13 20.47 20.47
645 2 15.13 16.91 16.91
646 2 18.69 20.47 16.91
647 2 20.47 20.47 15.13
648 2 20.47 15.13 20.47
649 1 21.36 0.0 0.0
650 1 21.36 3.56 3.56
651 1 23.14 1.78 1.78
652 1 24.92 0.0 3.56
653 1 23.14 5.34 5.34
654 1 26.7 5.34 1.78
655 1 24.92 3.56 0.0
656 1 26.7 1.78 5.34
657 2 22.25 0.89 0.89
658 2 27.59 4.45 2.67
659 2 24.03 2.67 0.89
660 2 25.81 0.89 4.45
661 2 22.25 4.45 4.45
662 2 25.81 4.45 0.89
663 2 24.03 6.23 4.45
664 2 24.03 0.89 2.67
665 2 25.81 2.67 6.23
666 2 27.59 2.67 4.45
667 2 24.03 4.45 6.23
668 2 22.25 6.23 6.23
669 2 22.25 2.67 2.67
670 2 25.81 6.23 2.67
671 2 27.59 6.23 0.89
672 2 27.59 0.89 6.23
673 1 21.36 0.0 7.12
674 1 21.36 3.56 10.68
675 1 23.14 1.78 8.9
676 1 24.92 0.0 10.68
677 1 23.14 5.34 12.46
678 1 26.7 5.34 8.9
679 1 24.92 3.56 7.12
680 1 26.7 1.78 12.46
681 2 22.25 0.89 8.01
682 2 27.59 4.45 9.79
683 2 24.03 2.67 8.01
684 2 25.81 0.89 11.57
685 2 22.25 4.45 11.57
686 2 25.81 4.45 8.01
687 2 24.03 6.23 11.57
688 2 24.03 0.89 9.79
689 2 25.81 2.67 13.35
690 2 27.59 2.67 11.57
691 2 24.03 4.45 13.35
692 2 22.25 6.23 13.35
693 2 22.25 2.67 9.79
694 2 25.81 6.23 9.79
695 2 27.59 6.23 8.01
696 2 27.59 0.89 13.35
697 1 21.36 0.0 14.24
698 1 21.36 3.56 17.8
699 1 23.14 1.78 16.02
700 1 24.92 0.0 17.8
701 1 23.14 5.34 19.58
702 1 26.7 5.34 16.02
703 1 24.92 3.56 14.24
704 1 26.7 1.78 19.58
705 2 22.25 0.89 15.13
706 2 27.59 4.45 16.91
707 2 24.03 2.67 15.13
708 2 25.81 0.89 18.69
709 2 22.25 4.45 18.69
710 2 25.81 4.45 15.13
711 2 24.03 6.23 18.69
712 2 24.03 0.89 16.91
713 2 25.81 2.67 20.47
714 2 27.59 2.67 18.69
715 2 24.03 4.45 20.47
716 2 22.25 6.23 20.47
717 2 22.25 2.67 16.91
718 2 25.81 6.23 16.91
719 2 27.59 6.23 15.13
720 2 27.59 0.89 20.47
721 1 21.36 7.12 0.0
722 1 21.36 10.68 3.56
723 1 23.14 8.9 1.78
724 1 24.92 7.12 3.56
725 1 23.14 12.46 5.34
726 1 26.7 12.46 1.78
727 1 24.92 10.68 0.0
728 1 26.7 8.9 5.34
729 2 22.25 8.01 0.89
730 2 27.59 11.57 2.67
731 2 24.03 9.79 0.89
732 2 25.81 8.01 4.45
733 2 22.25 11.57 4.45
734 2 25.81 11.57 0.89
735 2 24.03 13.35 4.45
736 2 24.03 8.01 2.67
737 2 25.81 9.79 6.23
738 2 27.59 9.79 4.45
739 2 24.03 11.57 6.23
740 2 22.25 13.35 6.23
741 2 22.25 9.79 2.67
742 2 25.81 13.35 2.67
743 2 27.59 13.35 0.89
744 2 27.59 8.01 6.23
745 1 21.36 7.12 7.12
746 1 21.36 10.68 10.68
747 1 23.14 8.9 8.9
748 1 24.92 7.12 10.68
749 1 23.14 12.46 12.46
750 1 26.7 12.46 8.9
751 1 24.92 10.68 7.12
752 1 26.7 8.9 12.46
753 2 22.25 8.01 8.01
754 2 27.59 11.57 9.79
755 2 24.03 9.79 8.01
756 2 25.81 8.01 11.57
757 2 22.25 11.57 11.57
758 2 25.81 11.57 8.01
759 2 24.03 13.35 11.57
760 2 24.03 8.01 9.79
761 2 25.81 9.79 13.35
762 2 27.59 9.79 11.57
763 2 24.03 11.57 13.35
764 2 22.25 13.35 13.35
765 2 22.25 9.79 9.79
766 2 25.81 13.35 9.79
767 2 27.59 13.35 8.01
768 2 27.59 8.01 13.35
769 1 21.36 7.12 14.24
770 1 21.36 10.68 17.8
771 1 23.14 8.9 16.02
772 1 24.92 7.12 17.8
773 1 23.14 12.46 19.58
774 1 26.7 12.46 16.02
775 1 24.92 10.68 14.24
776 1 26.7 8.9 19.58
777 2 22.25 8.01 15.13
778 2 27.59 11.57 16.91
779 2 24.03 9.79 15.13
780 2 25.81 8.01 18.69
781 2 22.25 11.57 18.69
782 2 25.81 11.57 15.13
783 2 24.03 13.35 18.69
784 2 24.03 8.01 16.91
785 2 25.81 9.79 20.47
786 2 27.59 9.79 18.69
787 2 24.03 11.57 20.47
788 2 22.25 13.35 20.47
789 2 22.25 9.79 16.91
790 2 25.81 13.35 16.91
791 2 27.59 13.35 15.13
792 2 27.59 8.01 20.47
793 1 21.36 14.24 0.0
794 1 21.36 17.8 3.56
795 1 23.14 16.02 1.78
796 1 24.92 14.24 3.56
797 1 23.14 19.58 5.34
798 1 26.7 19.58 1.78
799 1 24.92 17.8 0.0
800 1 26.7 16.02 5.34
801 2 22.25 15.13 0.89
802 2 27.59 18.69 2.67
803 2 24.03 16.91 0.89
804 2 25.81 15.13 4.45
805 2 22.25 18.69 4.45
806 2 25.81 18.69 0.89
807 2 24.03 20.47 4.45
808 2 24.03 15.13 2.67
809 2 25.81 16.91 6.23
810 2 27.59 16.91 4.45
811 2 24.03 18.69 6.23
812 2 22.25 20.47 6.23
813 2 22.25 16.91 2.67
814 2 25.81 20.47 2.67
815 2 27.59 20.47 0.89
816 2 27.59 15.13 6.23
817 1 21.36 14.24 7.12
818 1 21.36 17.8 10.68
819 1 23.14 16.02 8.9
820 1 24.92 14.24 10.68
821 1 23.14 19.58 12.46
822 1 26.7 19.58 8.9
823 1 24.92 17.8 7.12
824 1 26.7 16.02 12.46
825 2 22.25 15.13 8.01
826 2 27.59 18.69 9.79
827 2 24.03 16.91 8.01
828 2 25.81 15.13 11.57
829 2 22.25 18.69 11.57
830 2 25.81 18.69 8.01
831 2 24.03 20.47 11.57
832 2 24.03 15.13 9.79
833 2 25.81 16.91 13.35
834 2 27.59 16.91 11.57
835 2 24.03 18.69 13.35
836 2 22.25 20.47 13.35
837 2 22.25 16.91 9.79
838 2 25.81 20.47 9.79
839 2 27.59 20.47 8.01
840 2 27.59 15.13 13.35
841 1 21.36 14.24 14.24
842 1 21.36 17.8 17.8
843 1 23.14 16.02 16.02
844 1 24.92 14.24 17.8
845 1 23.14 19.58 19.58
846 1 26.7 19.58 16.02
847 1 24.92 17.8 14.24
848 1 26.7 16.02 19.58
849 2 22.25 15.13 15.13
850 2 27.59 18.69 16.91
851 2 24.03 16.91 15.13
852 2 25.81 15.13 18.69
853 2 22.25 18.69 18.69
854 2 25.81 18.69 15.13
855 2 24.03 20.47 18.69
856 2 24.03 15.13 16.91
857 2 25.81 16.91 20.47
858 2 27.59 16.91 18.69
859 2 24.03 18.69 20.47
860 2 22.25 20.47 20.47
861 2 22.25 16.91 16.91
862 2 25.81 20.47 16.91
863 2 27.59 20.47 15.13
864 2 27.59 15.13 20.47
865 1 28.48 0.0 0.0
866 1 28.48 3.56 3.56
867 1 30.26 1.78 1.78
868 1 32.04 0.0 3.56
869 1 30.26 5.34 5.34
870 1 33.82 5.34 1.78
871 1 32.04 3.56 0.0
872 1 33.82 1.78 5.34
873 2 29.37 0.89 0.89
874 2 34.71 4.45 2.67
875 2 31.15 2.67 0.89
876 2 32.93 0.89 4.45
877 2 29.37 4.45 4.45
878 2 32.93 4.45 0.89
879 2 31.15 6.23 4.45
880 2 31.15 0.89 2.67
881 2 32.93 2.67 6.23
882 2 34.71 2.67 4.45
883 2 31.15 4.45 6.23
884 2 29.37 6.23 6.23
885 2 29.37 2.67 2.67
886 2 32.93 6.23 2.67
887 2 34.71 6.23 0.89
888 2 34.71 0.89 6.23
889 1 28.48 0.0 7.12
890 1 28.48 3.56 10.68
891 1 30.26 1.78 8.9
892 1 32.04 0.0 10.68
893 1 30.26 5.34 12.46
894 1 33.82 5.34 8.9
895 1 32.04 3.56 7.12
896 1 33.82 1.78 12.46
897 2 29.37 0.89 8.01
898 2 34.71 4.45 9.79
899 2 31.15 2.67 8.01
900 2 32.93 0.89 11.57
901 2 29.37 4.45 11.57
902 2 32.93 4.45 8.01
903 2 31.15 6.23 11.57
904 2 31.15 0.89 9.79
905 2 32.93 2.67 13.35
906 2 34.71 2.67 11.57
907 2 31.15 4.45 13.35
908 2 29.37 6.23 13.35
909 2 29.37 2.67 9.79
910 2 32.93 6.23 9.79
911 2 34.71 6.23 8.01
912 2 34.71 0.89 13.35
913 1 28.48 0.0 14.24
914 1 28.48 3.56 17.8
915 1 30.26 1.78 16.02
916 1 32.04 0.0 17.8
917 1 30.26 5.34 19.58
918 1 33.82 5.34 16.02
919 1 32.04 3.56 14.24
920 1 33.82 1.78 19.58
921 2 29.37 0.89 15.13
922 2 34.71 4.45 16.91
923 2 31.15 2.67 15.13
924 2 32.93 0.89 18.69
925 2 29.37 4.45 18.69
926 2 32.93 4.45 15.13
927 2 31.15 6.23 18.69
928 2 31.15 0.89 16.91
929 2 32.93 2.67 20.47
930 2 34.71 2.67 18.69
931 2 31.15 4.45 20.47
932 2 29.37 6.23 20.47
933 2 29.37 2.67 16.91
934 2 32.93 6.23 16.91
935 2 34.71 6.23 15.13
936 2 34.71 0.89 20.47
937 1 28.48 7.12 0.0
938 1 28.48 10.68 3.56
939 1 30.26 8.9 1.78
940 1 32.04 7.12 3.56
941 1 30.26 12.46 5.34
942 1 33.82 12.46 1.78
943 1 32.04 10.68 0.0
944 1 33.82 8.9 5.34
945 2 29.37 8.01 0.89
946 2 34.71 11.57 2.67
947 2 31.15 9.79 0.89
948 2 32.93 8.01 4.45
949 2 29.37 11.57 4.45
950 2 32.93 11.57 0.89
951 2 31.15 13.35 4.45
952 2 31.15 8.01 2.67
953 2 32.93 9.79 6.23
954 2 34.71 9.79 4.45
955 2 31.15 11.57 6.23
956 2 29.37 13.35 6.23
957 2 29.37 9.79 2.67
958 2 32.93 13.35 2.67
959 2 34.71 13.35 0.89
960 2 34.71 8.01 6.23
961 1 28.48 7.12 7.12
962 1 28.48 10.68 10.68
963 1 30.26 8.9 8.9
964 1 32.04 7.12 10.68
965 1 30.26 12.46 12.46
966 1 33.82 12.46 8.9
967 1 32.04 10.68 7.12
968 1 33.82 8.9 12.46
969 2 29.37 8.01 8.01
970 2 34.71 11.57 9.79
971 2 31.15 9.79 8.01
972 2 32.93 8.01 11.57
973 2 29.37 11.57 11.57
974 2 32.93 11.57 8.01
975 2 31.15 13.35 11.57
976 2 31.15 8.01 9.79
977 2 32.93 9.79 13.35
978 2 34.71 9.79 11.57
979 2 31.15 11.57 13.35
980 2 29.37 13.35 13.35
981 2 29.37 9.79 9.79
982 2 32.93 13.35 9.79
983 2 34.71 13.35 8.01
984 2 34.71 8.01 13.35
985 1 28.48 7.12 14.24
986 1 28.48 10.68 17.8
987 1 30.26 8.9 16.02
988 1 32.04 7.12 17.8
989 1 30.26 12.46 19.58
990 1 33.82 12.46 16.02
991 1 32.04 10.68 14.24
992 1 33.82 8.9 19.58
993 2 29.37 8.01 15.13
994 2 34.71 11.57 16.91
995 2 31.15 9.79 15.13
996 2 32.93 8.01 18.69
997 2 29.37 11.57 18.69
998 2 32.93 11.57 15.13
999 2 31.15 13.35 18.69
1000 2 31.15 8.01 16.91
1001 2 32.93 9.79 20.47
1002 2 34.71 9.79 18.69
1003 2 31.15 11.57 20.47
1004 2 29.37 13.35 20.47
1005 2 29.37 9.79 16.91
1006 2 32.93 13.35 16.91
1007 2 34.71 13.35 15.13
1008 2 34.71 8.01 20.47
1009 1 28.48 14.24 0.0
1010 1 28.48 17.8 3.56
1011 1 30.26 16.02 1.78
1012 1 32.04 14.24 3.56
1013 1 30.26 19.58 5.34
1014 1 33.82 19.58 1.78
1015 1 32.04 17.8 0.0
1016 1 33.82 16.02 5.34
1017 2 29.37 15.13 0.89
1018 2 34.71 18.69 2.67
1019 2 31.15 16.91 0.89
1020 2 32.93 15.13 4.45
1021 2 29.37 18.69 4.45
1022 2 32.93 18.69 0.89
1023 2 31.15 20.47 4.45
1024 2 31.15 15.13 2.67
1025 2 32.93 16.91 6.23
1026 2 34.71 16.91 4.45
1027 2 31.15 18.69 6.23
1028 2 29.37 20.47 6.23
1029 2 29.37 16.91 2.67
1030 2 32.93 20.47 2.67
1031 2 34.71 20.47 0.89
1032 2 34.71 15.13 6.23
1033 1 28.48 14.24 7.12
1034 1 28.48 17.8 10.68
1035 1 30.26 16.02 8.9
1036 1 32.04 14.24 10.68
1037 1 30.26 19.58 12.46
1038 1 33.82 19.58 8.9
1039 1 32.04 17.8 7.12
1040 1 33.82 16.02 12.46
1041 2 29.37 15.13 8.01
1042 2 34.71 18.69 9.79
1043 2 31.15 16.91 8.01
1044 2 32.93 15.13 11.57
1045 2 29.37 18.69 11.57
1046 2 32.93 18.69 8.01
1047 2 31.15 20.47 11.57
1048 2 31.15 15.13 9.79
1049 2 32.93 16.91 13.35
1050 2 34.71 16.91 11.57
1051 2 31.15 18.69 13.35
1052 2 29.37 20.47 13.35
1053 2 29.37 16.91 9.79
1054 2 32.93 20.47 9.79
1055 2 34.71 20.47 8.01
1056 2 34.71 15.13 13.35
1057 1 28.48 14.24 14.24
1058 1 28.48 17.8 17.8
1059 1 30.26 16.02 16.02
1060 1 32.04 14.24 17.8
1061 1 30.26 19.58 19.58
1062 1 33.82 19.58 16.02
1063 1 32.04 17.8 14.24
1064 1 33.82 16.02 19.58
1065 2 29.37 15.13 15.13
1066 2 34.71 18.69 16.91
1067 2 31.15 16.91 15.13
1068 2 32.93 15.13 18.69
1069 2 29.37 18.69 18.69
1070 2 32.93 18.69 15.13
1071 2 31.15 20.47 18.69
1072 2 31.15 15.13 16.91
1073 2 32.93 16.91 20.47
1074 2 34.71 16.91 18.69
1075 2 31.15 18.69 20.47
1076 2 29.37 20.47 20.47
1077 2 29.37 16.91 16.91
1078 2 32.93 20.47 16.91
1079 2 34.71 20.47 15.13
1080 2 34.71 15.13 20.47
1081 1 35.6 0.0 0.0
1082 1 35.6 3.56 3.56
1083 1 37.38 1.78 1.78
1084 1 39.16 0.0 3.56
1085 1 37.38 5.34 5.34
1086 1 40.94 5.34 1.78
1087 1 39.16 3.56 0.0
1088 1 40.94 1.78 5.34
1089 2 36.49 0.89 0.89
1090 2 41.83 4.45 2.67
1091 2 38.27 2.67 0.89
1092 2 40.05 0.89 4.45
1093 2 36.49 4.45 4.45
1094 2 40.05 4.45 0.89
1095 2 38.27 6.23 4.45
1096 2 38.27 0.89 2.67
1097 2 40.05 2.67 6.23
1098 2 41.83 2.67 4.45
1099 2 38.27 4.45 6.23
1100 2 36.49 6.23 6.23
1101 2 36.49 2.67 2.67
1102 2 40.05 6.23 2.67
1103 2 41.83 6.23 0.89
1104 2 41.83 0.89 6.23
1105 1 35.6 0.0 7.12
1106 1 35.6 3.56 10.68
1107 1 37.38 1.78 8.9
1108 1 39.16 0.0 10.68
1109 1 37.38 5.34 12.46
1110 1 40.94 5.34 8.9
1111 1 39.16 3.56 7.12
1112 1 40.94 1.78 12.46
1113 2 36.49 0.89 8.01
1114 2 41.83 4.45 9.79
1115 2 38.27 2.67 8.01
1116 2 40.05 0.89 11.57
1117 2 36.49 4.45 11.57
1118 2 40.05 4.45 8.01
1119 2 38.27 6.23 11.57
1120 2 38.27 0.89 9.79
1121 2 40.05 2.67 13.35
1122 2 41.83 2.67 11.57
1123 2 38.27 4.45 13.35
1124 2 36.49 6.23 13.35
1125 2 36.49 2.67 9.79
1126 2 40.05 6.23 9.79
1127 2 41.83 6.23 8.01
1128 2 41.83 0.89 13.35
1129 1 35.6 0.0 14.24
1130 1 35.6 3.56 17.8
1131 1 37.38 1.78 16.02
1132 1 39.16 0.0 17.8
1133 1 37.38 5.34 19.58
1134 1 40.94 5.34 16.02
1135 1 39.16 3.56 14.24
1136 1 40.94 1.78 19.58
1137 2 36.49 0.89 15.13
1138 2 41.83 4.45 16.91
1139 2 38.27 2.67 15.13
1140 2 40.05 0.89 18.69
1141 2 36.49 4.45 18.69
1142 2 40.05 4.45 15.13
1143 2 38.27 6.23 18.69
1144 2 38.27 0.89 16.91
1145 2 40.05 2.67 20.47
1146 2 41.83 2.67 18.69
1147 2 38.27 4.45 20.47
1148 2 36.49 6.23 20.47
1149 2 36.49 2.67 16.91
1150 2 40.05 6.23 16.91
1151 2 41.83 6.23 15.13
1152 2 41.83 0.89 20.47
1153 1 35.6 7.12 0.0
1154 1 35.6 10.68 3.56
1155 1 37.38 8.9 1.78
1156 1 39.16 7.12 3.56
1157 1 37.38 12.46 5.34
1158 1 40.94 12.46 1.78
1159 1 39.16 10.68 0.0
1160 1 40.94 8.9 5.34
1161 2 36.49 8.01 0.89
1162 2 41.83 11.57 2.67
1163 2 38.27 9.79 0.89
1164 2 40.05 8.01 4.45
1165 2 36.49 11.57 4.45
1166 2 40.05 11.57 0.89
1167 2 38.27 13.35 4.45
1168 2 38.27 8.01 2.67
1169 2 40.05 9.79 6.23
1170 2 41.83 9.79 4.45
1171 2 38.27 11.57 6.23
1172 2 36.49 13.35 6.23
1173 2 36.49 9.79 2.67
1174 2 40.05 13.35 2.67
1175 2 41.83 13.35 0.89
1176 2 41.83 8.01 6.23
1177 1 35.6 7.12 7.12
1178 1 35.6 10.68 10.68
1179 1 37.38 8.9 8.9
1180 1 39.16 7.12 10.68
1181 1 37.38 12.46 12.46
1182 1 40.94 12.46 8.9
1183 1 39.16 10.68 7.12
1184 1 40.94 8.9 12.46
1185 2 36.49 8.01 8.01
1186 2 41.83 11.57 9.79
1187 2 38.27 9.79 8.01
1188 2 40.05 8.01 11.57
1189 2 36.49 11.57 11.57
1190 2 40.05 11.57 8.01
1191 2 38.27 13.35 11.57
1192 2 38.27 8.01 9.79
1193 2 40.05 9.79 13.35
1194 2 41.83 9.79 11.57
1195 2 38.27 11.57 13.35
1196 2 36.49 13.35 13.35
1197 2 36.49 9.79 9.79
1198 2 40.05 13.35 9.79
1199 2 41.83 13.35 8.01
1200 2 41.83 8.01 13.35
1201 1 35.6 7.12 14.24
1202 1 35.6 10.68 17.8
1203 1 37.38 8.9 16.02
1204 1 39.16 7.12 17.8
1205 1 37.38 12.46 19.58
1206 1 40.94 12.46 16.02
1207 1 39.16 10.68 14.24
1208 1 40.94 8.9 19.58
1209 2 36.49 8.01 15.13
1210 2 41.83 11.57 16.91
1211 2 38.27 9.79 15.13
1212 2 40.05 8.01 18.69
1213 2 36.49 11.57 18.69
1214 2 40.05 11.57 15.13
1215 2 38.27 13.35 18.69
1216 2 38.27 8.01 16.91
1217 2 40.05 9.79 20.47
1218 2 41.83 9.79 18.69
1219 2 38.27 11.57 20.47
1220 2 36.49 13.35 20.47
1221 2 36.49 9.79 16.91
1222 2 40.05 13.35 16.91
1223 2 41.83 13.35 15.13
1224 2 41.83 8.01 20.47
1225 1 35.6 14.24 0.0
1226 1 35.6 17.8 3.56
1227 1 37.38 16.02 1.78
1228 1 39.16 14.24 3.56
1229 1 37.38 19.58 5.34
1230 1 40.94 19.58 1.78
1231 1 39.16 17.8 0.0
1232 1 40.94 16.02 5.34
1233 2 36.49 15.13 0.89
1234 2 41.83 18.69 2.67
1235 2 38.27 16.91 0.89
1236 2 40.05 15.13 4.45
1237 2 36.49 18.69 4.45
1238 2 40.05 18.69 0.89
1239 2 38.27 20.47 4.45
1240 2 38.27 15.13 2.67
1241 2 40.05 16.91 6.23
1242 2 41.83 16.91 4.45
1243 2 38.27 18.69 6.23
1244 2 36.49 20.47 6.23
1245 2 36.49 16.91 2.67
1246 2 40.05 20.47 2.67
1247 2 41.83 20.47 0.89
1248 2 41.83 15.13 6.23
1249 1 35.6 14.24 7.12
1250 1 35.6 17.8 10.68
1251 1 37.38 16.02 8.9
1252 1 39.16 14.24 10.68
1253 1 37.38 19.58 12.46
1254 1 40.94 19.58 8.9
1255 1 39.16 17.8 7.12
1256 1 40.94 16.02 12.46
1257 2 36.49 15.13 8.01
1258 2 41.83 18.69 9.79
1259 2 38.27 16.91 8.01
1260 2 40.05 15.13 11.57
1261 2 36.49 18.69 11.57
1262 2 40.05 18.69 8.01
1263 2 38.27 20.47 11.57
1264 2 38.27 15.13 9.79
1265 2 40.05 16.91 13.35
1266 2 41.83 16.91 11.57
1267 2 38.27 18.69 13.35
1268 2 36.49 20.47 13.35
1269 2 36.49 16.91 9.79
1270 2 40.05 20.47 9.79
1271 2 41.83 20.47 8.01
1272 2 41.83 15.13 13.35
1273 1 35.6 14.24 14.24
1274 1 35.6 17.8 17.8
1275 1 37.38 16.02 16.02
1276 1 39.16 14.24 17.8
1277 1 37.38 19.58 19.58
1278 1 40.94 19.58 16.02
1279 1 39.16 17.8 14.24
1280 1 40.94 16.02 19.58
1281 2 36.49 15.13 15.13
1282 2 41.83 18.69 16.91
1283 2 38.27 16.91 15.13
1284 2 40.05 15.13 18.69
1285 2 36.49 18.69 18.69
1286 2 40.05 18.69 15.13
1287 2 38.27 20.47 18.69
1288 2 38.27 15.13 16.91
1289 2 40.05 16.91 20.47
1290 2 41.83 16.91 18.69
1291 2 38.27 18.69 20.47
1292 2 36.49 20.47 20.47
1293 2 36.49 16.91 16.91
1294 2 40.05 20.47 16.91
1295 2 41.83 20.47 15.13
1296 2 41.83 15.13 20.47
1297 1 42.72 0.0 0.0
1298 1 42.72 3.56 3.56
1299 1 44.5 1.78 1.78
1300 1 46.28 0.0 3.56
1301 1 44.5 5.34 5.34
1302 1 48.06 5.34 1.78
1303 1 46.28 3.56 0.0
1304 1 48.06 1.78 5.34
1305 2 43.61 0.89 0.89
1306 2 48.95 4.45 2.67
1307 2 45.39 2.67 0.89
1308 2 47.17 0.89 4.45
1309 2 43.61 4.45 4.45
1310 2 47.17 4.45 0.89
1311 2 45.39 6.23 4.45
1312 2 45.39 0.89 2.67
1313 2 47.17 2.67 6.23